LAMMPS (20 Nov 2019)
# sample LAMMPS input script for viscosity of 2d core/corona liquid
# use shearing wall, thermostat via fix langevin
package         gpu 1
# settings

variable  r index 0.54
variable  s  equal  0.1
variable  s1 equal -1.0*$s
variable  s1 equal -1.0*0.1

variable	x equal 20
variable	y equal 20
variable	ylo equal -2.5
variable	yhi equal 23

#variable	rho equal 0.3
variable        t equal 0.1
variable	rc equal 2.5

#variable	srate equal 2.7
#variable         srate equal 0.01
# problem setup

units		lj
dimension	2
atom_style	atomic
neigh_modify	delay 0 every 1

lattice         sq2 $r
lattice         sq2 0.54
Lattice spacing in x,y,z = 1.9245 1.9245 1.9245
region          simbox block 0 $x ${ylo} ${yhi} -0.1 0.1
region          simbox block 0 20 ${ylo} ${yhi} -0.1 0.1
region          simbox block 0 20 -2.5 ${yhi} -0.1 0.1
region          simbox block 0 20 -2.5 23 -0.1 0.1
create_box      3 simbox
Created orthogonal box = (0 -4.81125 -0.19245) to (38.49 44.2635 0.19245)
  1 by 1 by 1 MPI processor grid
create_atoms    1 box
Created 1020 atoms
  create_atoms CPU = 0.000499189 secs
mass            * 1.0

#######################################Potentials##################################
#pair_style     hybrid   lj/cut ${rc} table/gpu 10
#pair_style     lj/cut ${rc}
pair_style	table/gpu spline 1000
pair_coeff	* * CG.table S-S 10
WARNING: 1 of 998 force values in table are inconsistent with -dE/dr.
  Should only be flagged at inflection points (src/pair_table.cpp:483)
#pair_coeff      2 2  lj/cut ${rc} 1 1
#pair_coeff      3 3  lj/cut ${rc} 1 1

######################################################Walls##########################
region		lower block INF INF INF 0.0 INF INF
region		upper block INF INF $y INF INF INF
region		upper block INF INF 20 INF INF INF

group		lower region lower
120 atoms in group lower
group		upper region upper
120 atoms in group upper
set		group lower type 2
  120 settings made for type
set		group upper type 3
  120 settings made for type
group		wall union lower upper
240 atoms in group wall
group		flow subtract all wall
780 atoms in group flow

#####################################################################################3
velocity        flow create $t 97287
velocity        flow create 0.1 97287
velocity	upper set $s 0.0 0.0 units box
velocity	upper set 0.1 0.0 0.0 units box
velocity	lower set ${s1} 0.0 0.0 units box
velocity	lower set -0.1 0.0 0.0 units box

compute		thermal flow temp/partial 0 1 0
compute		flow flow temp
################################################Langevin Dynamics######################3
fix             1 all nve
fix	        2 flow langevin $t $t 1 498094
fix	        2 flow langevin 0.1 $t 1 498094
fix	        2 flow langevin 0.1 0.1 1 498094
fix_modify      2 temp thermal

fix		3 wall setforce 0.0 0.0 0.0

compute         layers all chunk/atom bin/1d y center 0.05 units reduced
fix		4 all ave/chunk 20 500 10000 layers vx file profile.wall.2d

fix	        5 all enforce2d

# equilibration run

variable        ybox equal $y*ylat
variable        ybox equal 20*ylat
compute		tilt flow temp/ramp vx 0 $s y 0 ${ybox} units box
compute		tilt flow temp/ramp vx 0 0.1 y 0 ${ybox} units box
compute		tilt flow temp/ramp vx 0 0.1 y 0 38.490017945975 units box

thermo          1000
thermo_style	custom step temp c_tilt epair etotal press pxy

run	        1000000
Per MPI rank memory allocation (min/avg/max) = 2.731 | 2.731 | 2.731 Mbytes
Step Temp c_tilt E_pair TotEng Press Pxy 
       0  0.077625123   0.10150789    185.81789    185.89544    103.55431 0.0012914899 
    1000   0.36394755   0.47531381    182.93479    183.29838    105.87743  -0.15867211 
    2000    0.1360442   0.17691442    182.48223    182.61814    106.46435   -0.3594338 
    3000  0.097923072   0.12657406    182.43219    182.53002    106.08014  -0.36895632 
    4000  0.094251084   0.11892775     182.3483    182.44246    106.53149  -0.42623224 
    5000  0.087221647   0.11438219    182.38664    182.47377    106.26679  -0.59745925 
    6000  0.085289289   0.11222158     182.3354     182.4206    106.65756  -0.47627229 
    7000    0.0863463   0.11195895    182.38496    182.47122    106.50281  -0.59542879 
    8000  0.091218071   0.11682996    182.33387      182.425     106.8965  -0.49073826 
    9000  0.095050904   0.12392727    182.33701    182.43197    106.62075  -0.63271017 
   10000  0.084178794   0.11173141    182.30183    182.38593    106.93879   -0.5187561 
   11000   0.08437447   0.10622432    182.33408    182.41838    106.86457  -0.81715825 
   12000  0.084255402   0.10548328    182.34531    182.42948    106.98829  -0.66766657 
   13000  0.091549965   0.11402704    182.34043    182.43189    107.00977   -0.7458923 
   14000  0.087420772   0.11068817    182.34647     182.4338    107.00645  -0.58897506 
   15000  0.086365659   0.11033151    182.31158    182.39786    107.22659  -0.68059851 
   16000  0.086119521   0.10960112    182.31522    182.40125    107.17449  -0.68030749 
   17000  0.081404505   0.10632424    182.30548     182.3868    107.47337   -0.8926615 
   18000  0.083282107   0.10796341    182.37016    182.45336    107.28007  -0.76775192 
   19000  0.087156767    0.1117005     182.3723    182.45937    107.64274   -1.0123311 
   20000  0.088417779   0.11084787    182.41644    182.50477    107.32636  -0.95370083 
   21000   0.08316777    0.1065032    182.40253    182.48562    107.84788   -1.0417117 
   22000  0.089619398   0.11715944    182.45831    182.54784    107.55268   -1.0287829 
   23000  0.085435148   0.11172802    182.43286    182.51822    107.90755  -0.98151792 
   24000  0.095405697   0.12419875    182.46554    182.56085    107.57793   -1.0216879 
   25000  0.091129189   0.11964246    182.41319    182.50423    108.07897  -0.92384712 
   26000  0.085115866   0.10813862     182.4732    182.55823    107.49864   -1.0168883 
   27000  0.093067968   0.11655873    182.40926    182.50224    107.95182  -0.86246862 
   28000    0.0941092   0.11892738    182.44791    182.54193    107.62032  -0.93449494 
   29000    0.0833713   0.10709551    182.40899    182.49228    107.97505  -0.90029047 
   30000   0.08289178   0.10824543    182.47135    182.55416    107.60969     -1.12288 
   31000  0.090764848   0.11411551    182.44019    182.53087     108.0098  -0.94111114 
   32000  0.084664803   0.10619402     182.4657    182.55028    107.83399   -1.0508177 
   33000  0.087558932   0.11387674    182.41858    182.50605    108.03212  -0.93785796 
   34000  0.098882162   0.12943837     182.4379    182.53669    107.88748  -0.92872776 
   35000  0.092295036   0.12357538    182.38577    182.47798    108.11382  -0.77926851 
   36000  0.083022225   0.10676003    182.42405    182.50699    107.96228   -1.0545491 
   37000  0.084443514   0.10811777    182.43239    182.51675    108.11031  -0.92651272 
   38000  0.089606233   0.11535479     182.4438    182.53332    108.11424   -1.0982044 
   39000  0.087232163   0.11463886    182.43688    182.52403    108.17766  -0.79086388 
   40000  0.086884494   0.11432752    182.42625    182.51305    108.19743  -0.92925678 
   41000  0.093181436   0.12332764    182.43268    182.52577    108.22353  -0.66270374 
   42000  0.085701258   0.11206106    182.42933    182.51495    108.22888  -0.96647107 
   43000  0.086257578    0.1128499    182.48759    182.57377    108.05869  -0.95203931 
   44000  0.088142936   0.11765187    182.49319    182.58124    108.44206   -1.1591753 
   45000   0.10005542   0.13547506    182.52257    182.62253    108.07562  -0.95999666 
   46000   0.09984094   0.13398452    182.47818    182.57792    108.42035  -0.85771126 
   47000  0.092311813     0.118868    182.49848     182.5907    107.95001  -0.87783859 
   48000  0.083774652    0.1083096    182.47127    182.55496    108.49005   -1.0426743 
   49000  0.084182334   0.10831301     182.5479      182.632    108.01388   -1.0742229 
   50000  0.086548043   0.11041203    182.51129    182.59775    108.51853   -1.1209459 
   51000   0.10023488   0.12358479    182.56827    182.66841    108.08952   -1.0228891 
   52000   0.10485332   0.12736122    182.47233    182.57708    108.58979  -0.90233435 
   53000  0.091564824   0.11572939    182.51687    182.60834    108.13086  -0.89850012 
   54000  0.084674227   0.11077353    182.48239    182.56698    108.55826  -0.99266129 
   55000  0.082379121   0.10483022    182.54427    182.62657    108.22513   -1.1805669 
   56000   0.08114672    0.1028795    182.53643     182.6175    108.38912   -1.2318407 
   57000   0.10458691   0.13212083    182.56408    182.66856    108.28234   -1.2510185 
   58000    0.1100701   0.13662952    182.49709    182.60705     108.5047   -0.8351921 
   59000  0.092043181   0.11370349    182.51488    182.60684    108.20617  -0.92630785 
   60000   0.10387055   0.13239357    182.43504    182.53881    108.41521  -0.72458066 
   61000  0.096408564   0.11815405    182.45833    182.55464    108.16837  -0.99263498 
   62000  0.096462564   0.12335951    182.42679    182.52316    108.47008  -0.66938154 
   63000  0.087176887   0.10960124    182.45217    182.53926    108.39799  -0.98950116 
   64000  0.093037537   0.12027577    182.44732    182.54027    108.23452  -0.75964815 
   65000  0.096795666   0.12040485    182.44287    182.53957     108.2414   -1.0661081 
   66000  0.089044739   0.11135364    182.46843    182.55739     108.1291  -0.83632597 
   67000  0.086281754   0.10929823     182.4672     182.5534    108.17449   -1.0243745 
   68000  0.093894192   0.11735677    182.51098    182.60478    107.96922  -0.78376182 
   69000    0.1147898   0.14228526    182.42394    182.53862    108.32203  -0.72800304 
   70000   0.12900729   0.15506345    182.39329    182.52217    108.11334   -0.4542369 
   71000  0.090955983   0.11794187    182.34753     182.4384    108.49775   -0.5313091 
   72000  0.079271308   0.10598775    182.41232    182.49151    108.05557  -0.73922141 
   73000   0.08413308   0.10490809    182.41017    182.49422    108.44619  -0.97530935 
   74000  0.083402035   0.10427842    182.49939    182.58271     108.1355   -1.1153616 
   75000  0.087865208   0.11124422    182.47923    182.56701    108.51719   -1.1510646 
   76000   0.10401751   0.13055564    182.52496    182.62887    108.14807  -0.88057915 
   77000   0.10859456   0.13011587    182.44674    182.55522    108.61658  -0.71586647 
   78000  0.096667776   0.12121617    182.48505    182.58162    108.17331  -0.65134134 
   79000  0.089305109   0.11549306    182.42298     182.5122    108.45832  -0.59153288 
   80000  0.091047484   0.11551363    182.45953    182.55049    108.14517  -0.82788054 
   81000   0.08241938   0.10413891    182.42738    182.50972    108.44083  -0.90469376 
   82000  0.080216867   0.10359417    182.50967    182.58981    108.02134   -1.0943717 
   83000  0.086998215   0.11026276    182.47713    182.56404    108.47827   -1.1224024 
   84000  0.087492874   0.11265335    182.54813    182.63554    108.09186   -1.2635772 
   85000   0.10870694   0.14725472    182.49323    182.60183    108.37476  -0.84079325 
   86000  0.099490189   0.13279507    182.47797    182.57736    108.26935  -0.95401593 
   87000  0.084234213   0.11143143    182.46545     182.5496    108.34591  -0.92327598 
   88000  0.088037598   0.11232502    182.48925     182.5772    108.19268   -1.1101462 
   89000  0.078921364   0.10280856    182.50913    182.58798    108.30982  -0.96622526 
   90000  0.092533756   0.11588367      182.505    182.59745    108.31228   -1.1606773 
   91000   0.10544786   0.12976957    182.50533    182.61068    108.38406  -0.80211958 
   92000    0.1238699     0.150353     182.4287    182.55245    108.51005  -0.63069867 
   93000  0.095963198   0.12056919     182.4257    182.52157    108.34272  -0.14578222 
   94000  0.085223742   0.10931489    182.37158    182.45672    108.64837  -0.40285626 
   95000  0.082728612   0.10529293    182.41076    182.49341    108.50924  -0.41690138 
   96000  0.076147713   0.09734469    182.39916    182.47523    108.73656  -0.79917692 
   97000  0.084081228   0.10582632    182.47657    182.56057    108.30999  -0.86959679 
   98000  0.077794499   0.10077331    182.48179    182.55951    108.62006    -1.179774 
   99000  0.092805646   0.11882841    182.53894    182.63166    108.38315   -1.0409294 
  100000  0.089272274   0.11022403    182.51177    182.60095     108.7143   -1.1556465 
  101000  0.094953467   0.11814497    182.55265    182.64751    108.30137   -1.0195136 
  102000   0.10761787   0.13485129    182.46854    182.57605    108.78506  -0.89079666 
  103000   0.10810567   0.13073637    182.48826    182.59626    108.26623  -0.69075791 
  104000  0.093830069   0.12253616    182.43917    182.53291    108.71126  -0.64747489 
  105000  0.081270448    0.1069923    182.51273    182.59392    108.24686  -0.91622485 
  106000  0.092917987   0.11500162    182.48505    182.57787    108.58874  -0.99923634 
  107000  0.095728167   0.11717892    182.53347    182.62911    108.28359  -0.99569715 
  108000  0.083655443    0.1083023    182.50311    182.58668    108.62619  -0.92330495 
  109000   0.10801284   0.13466656    182.50644    182.61435    108.30164  -0.92199575 
  110000  0.095836958   0.11757715    182.47353    182.56927    108.47326  -0.76074252 
  111000  0.095924939   0.11779565    182.46552    182.56135    108.46297  -0.75508441 
  112000   0.09669587   0.12306746    182.43848    182.53508    108.50982  -0.56964338 
  113000  0.087913199    0.1106537    182.44573    182.53356    108.37519  -0.81181782 
  114000   0.08323269   0.10552802    182.44716    182.53031    108.35688  -0.75026674 
  115000  0.098226751   0.12051391    182.42983    182.52796    108.37628  -0.74187993 
  116000  0.099503744   0.12615806     182.4402    182.53961    108.42778  -0.69792605 
  117000  0.084035403   0.10850589     182.4532    182.53715    108.58632   -1.0259694 
  118000  0.083121696   0.10536777    182.50481    182.58785    108.22885  -0.98691722 
  119000   0.08560321   0.10927236    182.52456    182.61008    108.49344   -1.2650092 
  120000   0.10973406   0.13348872     182.5269    182.63653    108.34383  -0.81880628 
  121000   0.12543147   0.15580646     182.4407    182.56601    108.86667   -0.5903387 
  122000    0.1019772   0.12662872    182.46018    182.56206    108.46439  -0.36941155 
  123000  0.089598415   0.11849878    182.42471    182.51423    108.64531  -0.78478316 
  124000  0.085664544   0.11255176    182.50829    182.59388    108.15274   -0.9787312 
  125000  0.079858595   0.10081589    182.50242     182.5822    108.68339   -1.2883636 
  126000  0.084876419   0.10798022    182.59579    182.68058    108.27504   -1.2803678 
  127000  0.079996498   0.10412036    182.57408      182.654    108.71686   -1.3481458 
  128000  0.098272253   0.13347693     182.6302    182.72837    108.24731   -1.1070676 
  129000   0.10914187    0.1483824    182.49525    182.60429    108.97394   -0.6176879 
  130000  0.088602946   0.11622537     182.5279    182.61641    108.37123  -0.73701503 
  131000  0.095135202   0.12049453    182.48111    182.57615    108.80731  -0.75351284 
  132000  0.092032601   0.11546453    182.50506      182.597    108.35025  -0.79684909 
  133000   0.09225591   0.11546056    182.45905    182.55122    108.78603  -0.75541084 
  134000  0.086478872   0.10985669    182.49735    182.58374    108.33565  -0.84822967 
  135000  0.084460428   0.10584488    182.44266    182.52704    108.80214  -0.63433177 
  136000  0.085891768   0.11018699    182.48593    182.57174    108.44034  -0.96962234 
  137000  0.097376593   0.11962072     182.4317    182.52898    108.68535  -0.62250329 
  138000  0.099735149   0.12544905    182.44581    182.54545    108.38029  -0.81655183 
  139000  0.093618087   0.11515017    182.41157     182.5051    108.52671  -0.45934034 
  140000  0.083938139   0.10614857    182.41897    182.50283    108.51538  -0.77150459 
  141000  0.082495832    0.1105911    182.44035    182.52277    108.40277  -0.75073626 
  142000  0.087803325   0.11557818    182.46683    182.55455    108.50108   -1.0634537 
  143000   0.08541264   0.11236491    182.47393    182.55926    108.44272  -0.86196067 
  144000  0.076086043  0.098042448    182.49389     182.5699    108.45335   -1.3266175 
  145000  0.082751865   0.10615967    182.55413     182.6368    108.41101    -1.185128 
  146000  0.099428561   0.12569221    182.52229    182.62162    108.70846   -1.2499414 
  147000   0.10009394   0.12660534    182.54268    182.64268    108.47988    -1.021965 
  148000   0.10000199   0.12437655    182.47541    182.57531    108.69706  -0.85097036 
  149000    0.1057885   0.12656134    182.47355    182.57924    108.38418  -0.63049909 
  150000  0.082669711   0.10725219    182.44794    182.53053    108.77014  -0.67972664 
  151000  0.091111392   0.11620176    182.48488    182.57591    108.44195  -0.66352789 
  152000  0.091965331   0.11612964     182.4462    182.53807    108.79867   -0.8926312 
  153000   0.08330189   0.10411215     182.4968    182.58002    108.46821  -0.80079545 
  154000  0.088891521   0.11307806    182.45867    182.54748    108.83979  -0.93909177 
  155000  0.085734011   0.11364274    182.54259    182.62824    108.46663   -1.1585369 
  156000   0.08676799   0.11597336    182.52302     182.6097    108.87479   -1.2062885 
  157000  0.092140235   0.12279976    182.54436    182.63641    108.41804  -0.90029877 
  158000  0.087629371   0.11320868    182.49896     182.5865    108.82879  -0.93529208 
  159000  0.086328416   0.11750943    182.53145    182.61769    108.51754  -0.99047593 
  160000   0.09636631   0.13494076    182.46984    182.56612    108.77437  -0.65387698 
  161000   0.10615481   0.14634091    182.46109    182.56714     108.5302  -0.72641248 
  162000  0.092483149   0.12441913    182.41942    182.51181    108.64704  -0.72369859 
  163000  0.082225168   0.10498179    182.44139    182.52353    108.34158  -0.94758996 
  164000  0.077266244   0.10032622     182.4632    182.54039    108.60764  -0.86743909 
  165000   0.08453363   0.11311306    182.49903    182.58348    108.58047   -1.1113563 
  166000   0.08932717   0.12316197    182.49153    182.58077     108.6887  -0.82830487 
  167000  0.098658233   0.13499609    182.49596    182.59452    108.57285   -1.0792842 
  168000   0.10304465   0.13961267    182.47195     182.5749    108.67919   -0.6996996 
  169000  0.088422135   0.11894554    182.46028    182.54861    108.82009   -1.0258027 
  170000  0.086799222   0.11085082    182.50789    182.59461    108.54243  -0.90650523 
  171000  0.083335348   0.10779837    182.51914     182.6024    108.81628   -1.1839897 
  172000   0.09080702    0.1204568    182.59703    182.68775    108.52402   -1.1406666 
  173000  0.092920241   0.12615302    182.58007     182.6729    108.86089   -1.2367538 
  174000   0.10431981   0.14253794    182.59412    182.69834     108.4809   -1.0187099 
  175000   0.11922105   0.16765753    182.50144    182.62055    108.96723  -0.83351017 
  176000    0.1010373   0.13812787    182.54128    182.64221    108.48692  -0.88320142 
  177000  0.089510784   0.11935414    182.46604    182.55546    108.97627  -0.77096328 
  178000  0.086656306   0.11691763    182.52094    182.60751    108.40581  -0.87025845 
  179000  0.093721802   0.12776794    182.45975    182.55338    108.95992   -0.8164363 
  180000  0.080780528   0.10773862    182.53433    182.61503    108.52462   -1.0285696 
  181000  0.081663568   0.10424658    182.52291    182.60449    108.92907   -1.1079493 
  182000  0.081476925   0.10934873    182.58924    182.67064     108.5378   -1.2286499 
  183000  0.092530875   0.12886582     182.5659    182.65834    108.87369   -1.1717064 
  184000   0.10085656   0.14045625    182.59268    182.69343    108.61171   -1.0483911 
  185000   0.09547243   0.13047499     182.5357    182.63108    108.94962   -0.8973308 
  186000   0.10257562   0.13849814    182.53377    182.63624    108.62613   -0.9036292 
  187000  0.085102726   0.11361858    182.51394    182.59896    108.81317  -0.97545895 
  188000  0.084640732   0.11118386    182.56152    182.64608    108.71767   -1.1235145 
  189000  0.084461804   0.11450338    182.55317    182.63755    108.71172  -0.94347566 
  190000   0.10790623   0.15141798    182.52133    182.62913    108.66552  -0.97907951 
  191000  0.096065234   0.13376239    182.49877    182.59474    108.73733  -0.75085098 
  192000  0.094247289   0.12699841    182.49055     182.5847    108.85374  -0.84503625 
  193000  0.087146269   0.11657446    182.50711    182.59417    108.68453   -0.6948331 
  194000  0.084008205   0.11023228    182.50363    182.58756    108.80663  -0.94109065 
  195000   0.08362857   0.11376804     182.5304    182.61394    108.67781  -0.78792214 
  196000  0.096841548   0.13324433    182.47872    182.57547    108.91707  -0.83380767 
  197000   0.10252108    0.1399994    182.50494    182.60736    108.67394  -0.69892794 
  198000  0.088205441   0.11895477    182.46215    182.55027    108.85917  -0.83695714 
  199000   0.08885584   0.11532621    182.51846    182.60723    108.58358  -0.81476341 
  200000  0.087910856   0.12006353    182.49035    182.57817    108.89663  -0.94826191 
  201000   0.10311301   0.14144572    182.53773    182.64074    108.46143  -0.80361117 
  202000  0.093566459   0.12939562    182.47376    182.56724    109.06527  -0.68940476 
  203000  0.090315829   0.12223097    182.52757     182.6178    108.59712  -0.74090194 
  204000  0.095727166   0.12887404    182.45254    182.54817    109.07572  -0.66213226 
  205000  0.093543688   0.12717988    182.48379    182.57725    108.64973  -0.71277625 
  206000  0.079006552   0.10235115    182.45825    182.53718    109.01645   -0.8920672 
  207000  0.086027544   0.11630862    182.51231    182.59825    108.41414  -0.94497026 
  208000  0.089406505    0.1234106    182.48998     182.5793    108.93668    -0.930433 
  209000  0.096649847   0.13209328    182.50565    182.60221    108.67308  -0.87065096 
  210000  0.092767287   0.12424379    182.48434    182.57701    108.85925  -0.87779499 
  211000  0.087465733   0.11132604    182.53168    182.61906    108.48762   -1.1401093 
  212000  0.077253231   0.10143499    182.54058    182.61776    108.76193   -1.0655688 
  213000  0.098172198   0.12269241    182.55028    182.64835    108.46484   -1.1195609 
  214000   0.10229972   0.13500202     182.4886     182.5908    108.67424   -0.5947045 
  215000  0.095686044   0.12579449    182.48088    182.57648    108.57979  -0.85451217 
  216000  0.084195778   0.11297269    182.47719     182.5613    108.64623  -0.65607656 
  217000  0.094952952   0.12853564    182.46392    182.55878     108.5063  -0.81563196 
  218000   0.09024477   0.12181515     182.4636    182.55376    108.59539  -0.69042653 
  219000   0.10459483   0.13579006     182.4523    182.55679    108.65986  -0.86108853 
  220000  0.089311116   0.12188059    182.46483    182.55405    108.56009  -0.70925115 
  221000  0.085555029   0.11545981    182.46328    182.54875    108.82435  -0.98398026 
  222000   0.08047348   0.10621142    182.51773    182.59813     108.4182  -0.93153381 
  223000   0.10638971   0.14647978    182.45813    182.56441    108.77862  -0.95090824 
  224000  0.089070294   0.12172284    182.51257    182.60156    108.40476  -0.96681611 
  225000  0.090114361   0.11852155    182.49077     182.5808    108.72672   -1.0054089 
  226000  0.087587097   0.11870575    182.54008    182.62758     108.3856   -1.0302362 
  227000   0.09046659   0.12506416    182.50597    182.59635    108.86275   -1.0543726 
  228000   0.11125252   0.15740355    182.52119    182.63233    108.57742  -0.78712624 
  229000  0.095710739   0.13366465    182.44771    182.54333    108.86074  -0.86045629 
  230000  0.089641895   0.11840288    182.49106    182.58062     108.4563  -0.73562005 
  231000  0.079129788   0.10416536    182.46448    182.54353    108.82116  -0.99601164 
  232000  0.089196673   0.12137217     182.5198    182.60891    108.34694   -1.0247868 
  233000   0.10736783   0.14939981    182.45989    182.56715     108.7846   -0.9755894 
  234000   0.10989743    0.1539018    182.48122    182.59101    108.60704  -0.75609916 
  235000   0.10622024   0.14740748    182.39907    182.50519    108.78736  -0.41507286 
  236000   0.09402735   0.12316727    182.41991    182.51384    108.42895  -0.66310962 
  237000  0.081941621    0.1038247    182.38832    182.47018    108.71321  -0.72850645 
  238000  0.083090448   0.11007778    182.45352    182.53653    108.40844   -1.0876924 
  239000  0.086760869   0.11589753     182.4671    182.55377    108.52671   -1.0270023 
  240000  0.082397634   0.10995042    182.52787    182.61019    108.41614   -1.2770645 
  241000   0.10086597   0.14255744    182.47636    182.57713    108.51547  -0.82702385 
  242000   0.12312394   0.17365843    182.42914    182.55214    108.58114  -0.78126211 
  243000  0.088820691   0.12035067     182.4327    182.52144    108.51568  -0.45767691 
  244000  0.090105114   0.11527674    182.39232    182.48234    108.62221  -0.86723138 
  245000  0.081669248   0.10569684    182.44309    182.52468    108.47449   -0.7829498 
  246000  0.079968754   0.10546764    182.47077    182.55066     108.6255    -1.260889 
  247000  0.098026243   0.13128784    182.53077     182.6287     108.2962   -1.0132563 
  248000    0.1106372   0.15510913    182.44757     182.5581    108.82703  -0.79274181 
  249000  0.084970963   0.11252249    182.48862     182.5735    108.39184  -0.83132513 
  250000  0.093100193   0.12130796    182.43668    182.52968    108.94638  -0.64619516 
  251000  0.089049432   0.12049788    182.48772    182.57668    108.31141   -0.9467205 
  252000  0.087362272   0.11501745    182.47532    182.56259    108.82559  -0.98551448 
  253000  0.086785945   0.11636617    182.55112    182.63782    108.32559   -1.0763559 
  254000  0.097817466   0.13624333    182.49505    182.59277    108.89862  -0.99130662 
  255000  0.097100935   0.13351477    182.55764    182.65464    108.40975  -0.82775819 
  256000   0.11371642   0.15991775    182.43905    182.55265    108.97105  -0.57242382 
  257000  0.095326814   0.12763509    182.47828    182.57351    108.56326  -0.65467964 
  258000  0.087464024   0.10843399    182.44566    182.53304    108.98708  -0.89411479 
  259000  0.080390122   0.10507642    182.53451    182.61483     108.3548   -1.1938282 
  260000  0.093249919   0.12646007    182.51996    182.61312    108.70071   -1.1553295 
  261000   0.10896724   0.15463853    182.53461    182.64347    108.49793   -1.0382055 
  262000   0.10296439   0.14167297    182.48947    182.59234    108.81012  -0.91256359 
  263000   0.09332801   0.12274264    182.48752    182.58075    108.56333   -1.0143129 
  264000  0.079517037    0.1000879    182.49224    182.57168    108.57191    -1.076581 
  265000   0.07990162  0.099880843    182.56782    182.64765    108.39112   -1.3999709 
  266000  0.097049824   0.12463086    182.58457    182.68152    108.44167   -1.1516551 
  267000   0.12184873   0.14797205    182.53587     182.6576    108.49787   -1.0345144 
  268000   0.12062811   0.14564488    182.47284    182.59335    108.64402  -0.60494424 
  269000   0.10170646   0.13239934    182.44054    182.54215    108.74939  -0.62953909 
  270000  0.090886093   0.11606421    182.44853    182.53932    108.46993  -0.65740773 
  271000  0.085682245   0.11137828    182.45768    182.54328    108.62843  -0.92505719 
  272000  0.082247199   0.10627413    182.50387    182.58604    108.38164    -0.852355 
  273000  0.091052665   0.11779856    182.46333    182.55429    108.62626   -0.8607109 
  274000  0.086410279   0.11249826    182.50298    182.58931     108.4277   -0.8025083 
  275000   0.10981278   0.15275783    182.43501    182.54472     108.8112  -0.82676673 
  276000  0.093245645   0.12686633    182.48969    182.58284    108.40636  -0.77437674 
  277000      0.08493   0.11258568     182.4463    182.53115    108.84034  -0.65110215 
  278000  0.087411948   0.11639241    182.49219    182.57952     108.2621  -0.84443802 
  279000  0.083697261   0.10929552    182.45619    182.53981    108.84067  -0.86780058 
  280000  0.083073628   0.10853442     182.5366    182.61959    108.28909   -0.9728313 
  281000   0.10334822   0.13658926    182.44998    182.55322     108.7867  -0.69686989 
  282000  0.089069969   0.11455226    182.46962     182.5586    108.33768  -0.67727704 
  283000  0.090049394   0.11398722    182.40317    182.49313    108.89807  -0.41608359 
  284000  0.081058553   0.10499336    182.44024    182.52122    108.45644  -0.54750252 
  285000   0.08695525   0.11400683    182.40119    182.48806     108.8411   -0.6319835 
  286000  0.086555059   0.11246655    182.45591    182.54238    108.42967  -0.79343289 
  287000  0.079107234   0.10235386    182.45648    182.53551    108.65429  -0.95603835 
  288000  0.078676547   0.10064615    182.52744    182.60604    108.29902   -1.2497142 
  289000  0.094993684   0.12611787    182.51497    182.60987    108.62384  -0.99113291 
  290000   0.10667355    0.1351268    182.48319    182.58976    108.51946    -0.866919 
  291000  0.086064471   0.10866444    182.46304    182.54902    108.43471  -0.82719265 
  292000  0.097317411   0.12737295    182.48136    182.57858    108.46378   -0.8513083 
  293000  0.091842446   0.11709484    182.45821    182.54996    108.55924  -0.70425442 
  294000  0.088675205   0.11544803    182.44579    182.53438    108.59045  -0.89930371 
  295000  0.088803062   0.11472081    182.48152    182.57024    108.47988  -0.82296542 
  296000  0.087575629   0.11495704     182.4421    182.52959    108.56786  -0.95151536 
  297000  0.082949155   0.10884485     182.4868    182.56967    108.35449  -0.80024573 
  298000   0.09269651   0.12655739    182.47383    182.56643    108.67397   -1.0275706 
  299000   0.10337578   0.14460066    182.48553     182.5888     108.4226  -0.68612401 
  300000  0.097545481    0.1324444    182.44257    182.54002     108.7492  -0.68330047 
  301000  0.085668967   0.11103974    182.48081    182.56639    108.46214  -0.71992704 
  302000  0.078643877    0.1020945    182.45369    182.53226     108.6774  -0.92968691 
  303000  0.090519656   0.12083006    182.51355    182.60398    108.36442  -0.85492607 
  304000  0.091344432   0.12274922    182.48676    182.57801    108.70497   -1.0862102 
  305000  0.083045982   0.10888377    182.57642    182.65939    108.35957   -1.1273748 
  306000   0.10541309   0.14056193    182.50455    182.60986    108.89975  -0.90003956 
  307000   0.10054999   0.13409286    182.54621    182.64666    108.27591  -0.99892136 
  308000   0.10028156    0.1343992     182.4581    182.55828     108.7886  -0.80718451 
  309000  0.094477928   0.12863897    182.49609    182.59048     108.3624  -0.90041399 
  310000  0.099350662   0.13882154    182.42069    182.51995    108.95863  -0.65648853 
  311000  0.092520431   0.12507438    182.44993    182.54236    108.53471  -0.74619001 
  312000  0.077956486  0.097543872    182.41955    182.49743    108.81873  -0.83808065 
  313000  0.088561155   0.11312449    182.49691    182.58538    108.55011   -1.1848288 
  314000  0.099231889   0.12322549    182.46552    182.56466    108.78866  -0.98513689 
  315000  0.095845582   0.11959047    182.49315     182.5889    108.42646     -1.12843 
  316000   0.10757044   0.13223652    182.45561    182.56308     108.6889  -0.75632073 
  317000  0.095996508   0.12077694    182.45411    182.55001    108.54797  -0.82557027 
  318000  0.097887896   0.12118686     182.4219    182.51969    108.66014  -0.58567656 
  319000  0.087704229   0.11273443      182.432    182.51962     108.7585  -0.82794785 
  320000  0.078873317   0.10266113    182.46345    182.54224    108.61966  -0.83736972 
  321000  0.082274251   0.10324718    182.47276    182.55495    108.64496   -1.0777859 
  322000   0.10096187   0.12765545    182.50842    182.60928    108.50239  -0.85805239 
  323000   0.11119521   0.13369921    182.44195    182.55304     108.7839  -0.82602912 
  324000  0.098163993   0.12286437    182.46502    182.56309    108.61002  -0.45998738 
  325000  0.091550931   0.11719901    182.40737    182.49883    108.86217  -0.64796032 
  326000  0.087311063   0.11260653    182.44489    182.53212     108.4537   -0.6409363 
  327000  0.088449861   0.10994887    182.42095    182.50931    108.79106  -0.83059043 
  328000  0.092811986   0.11569711    182.47679    182.56951     108.5367  -0.78698636 
  329000  0.088701516   0.11450688    182.41676    182.50537    108.87845  -0.77034977 
  330000  0.085062709   0.10818751    182.47892     182.5639    108.29322  -0.86194147 
  331000  0.086652418   0.10845609    182.43164    182.51821    108.89718  -0.93150791 
  332000  0.092320883    0.1117761    182.49693    182.58916    108.51962  -0.78511925 
  333000  0.090067277   0.11309481    182.43838    182.52836    108.93049  -0.69329451 
  334000  0.089540427   0.11623749    182.47294    182.56239    108.38483   -0.8366688 
  335000  0.083190176   0.10382598     182.4367    182.51981    108.78952  -0.81978144 
  336000  0.090954699   0.11247045    182.48024    182.57111     108.4397  -0.90265119 
  337000  0.083209606    0.1055171    182.44116    182.52429    108.83189  -0.80227556 
  338000  0.085184425   0.10569884    182.48318    182.56828    108.69341  -0.93402637 
  339000  0.098350237   0.12151696    182.44112    182.53938    108.79058  -0.69892599 
  340000   0.10785819   0.13201605    182.43781    182.54556    108.71192  -0.65051581 
  341000  0.092651898    0.1202252    182.38724     182.4798     108.9206  -0.43419505 
  342000   0.08158672   0.10340044    182.41604    182.49755    108.57839  -0.80841636 
  343000  0.086023575   0.11002792    182.41538    182.50132    108.87033   -0.6643521 
  344000  0.084657694   0.10781934    182.43695    182.52152    108.68209   -1.0092731 
  345000  0.087738341   0.10951756    182.46294    182.55059    108.76215  -0.76121719 
  346000   0.08951057    0.1115724    182.45171    182.54113     108.7678  -0.94161242 
  347000  0.078103621   0.10052224    182.48981    182.56783    108.47805  -0.93630429 
  348000  0.085590864   0.10938875    182.48239    182.56789    108.79723   -1.1518624 
  349000  0.085282303   0.10789173    182.53562    182.62082    108.55092   -1.0986186 
  350000  0.095831964   0.12014588    182.48432    182.58006    108.78975   -1.0897991 
  351000  0.086378893   0.10841137    182.53498    182.62127    108.47942  -0.90107439 
  352000   0.11433799   0.13900692    182.47442    182.58865     108.9962  -0.78540505 
  353000   0.10969447   0.13511816    182.50662    182.61621    108.50732  -0.57698358 
  354000  0.096736429   0.12254431    182.44582    182.54246    109.00638  -0.57775385 
  355000  0.093715269   0.12031386     182.4578    182.55143    108.44545  -0.63761887 
  356000  0.080058924  0.099729215    182.43324    182.51322    108.93942  -0.87278808 
  357000  0.083674122   0.10718433    182.50257    182.58617    108.46983  -0.98436763 
  358000  0.094092882   0.11808428     182.4613     182.5553    108.88229  -0.97441582 
  359000  0.091451268   0.11287823    182.52597    182.61733    108.43496   -1.0201846 
  360000   0.10755397   0.13566727     182.4409    182.54834    109.04973  -0.75137364 
  361000  0.080118032   0.10380077    182.50605    182.58609    108.42825  -0.97701548 
  362000  0.085064378   0.10926695    182.49347    182.57845    108.95283   -1.0218106 
  363000  0.086601847   0.10686607    182.55168     182.6382    108.45989   -1.3043373 
  364000     0.091294   0.11612459     182.5584     182.6496    108.69291   -1.2025142 
  365000  0.097222084   0.12054846    182.56743    182.66456    108.58812   -1.1552319 
  366000  0.095626824   0.11933323     182.5428    182.63833    108.79318  -0.97774395 
  367000    0.1171413    0.1452893    182.52306    182.64008    108.67285  -0.85014276 
  368000   0.10829588   0.13146684    182.43611     182.5443    108.88098  -0.46674497 
  369000  0.097399013   0.12384875     182.4203    182.51761    108.83129   -0.5352881 
  370000  0.086586796   0.11029372    182.42472    182.51122    108.73041  -0.53366311 
  371000  0.082934906   0.10725249    182.43483    182.51769    108.80879  -0.85005755 
  372000  0.086545947   0.10963838    182.45724     182.5437    108.54756  -0.67195024 
  373000  0.084015074   0.10544915    182.45566     182.5396    108.82842   -0.8772555 
  374000  0.084598218   0.10704968    182.49395    182.57846    108.48417   -0.8419045 
  375000  0.097808511   0.12385599    182.46311    182.56082    108.76242  -0.96678007 
  376000  0.086398526    0.1064003    182.51789     182.6042    108.56138  -0.88025196 
  377000  0.097392533   0.12352511    182.47572    182.57302    108.85538  -0.93496873 
  378000  0.090793367   0.11435908    182.53694    182.62764    108.48711  -0.92378797 
  379000  0.082870125   0.10750816    182.53787    182.62066     108.9798   -1.1479431 
  380000  0.076463697  0.099742416     182.6295    182.70589    108.55888    -1.389514 
  381000  0.085524249   0.11325801    182.62187    182.70731    109.03625   -1.2929021 
  382000  0.096613231   0.13595974    182.65487    182.75139    108.57549   -1.1340072 
  383000    0.1271525    0.1787907    182.53493    182.66195    109.23017  -0.77716416 
  384000   0.11269296   0.15570691    182.52099    182.63357     108.6618  -0.61922964 
  385000   0.08619096   0.11346327    182.45699    182.54309    109.18312  -0.56634455 
  386000  0.081640046   0.10722544    182.49461    182.57617    108.56244  -0.79052103 
  387000   0.08589173   0.11665335     182.4768    182.56261    108.94122   -0.8177075 
  388000  0.096453036   0.13360962    182.51155    182.60791    108.54579  -0.89692241 
  389000   0.10161547   0.14029088    182.45302    182.55453    109.06896  -0.55829263 
  390000  0.085241147   0.11321323    182.48796    182.57312    108.62716  -0.79554436 
  391000  0.085582423   0.11216094    182.47056    182.55606     108.8444  -0.79574584 
  392000  0.090608439   0.12322091    182.49203    182.58255     108.6795  -0.99394387 
  393000  0.099258039   0.13675793    182.47277    182.57193    108.70817  -0.74151041 
  394000  0.095606202   0.13075147    182.47293    182.56844    108.83423  -0.77520225 
  395000  0.083391656   0.10810016    182.49324    182.57655    108.73373  -0.84126436 
  396000  0.089959029   0.11658709    182.50323     182.5931    108.70877   -1.1205408 
  397000  0.087713449   0.11997879    182.53794    182.62557    108.51857   -1.0254137 
  398000   0.10514846   0.14078205    182.55002    182.65506    108.67119   -1.2136685 
  399000   0.11101359   0.15414679    182.54776    182.65866    108.52638  -0.82912307 
  400000   0.11051945   0.15161931    182.48312    182.59353     108.9228  -0.88469774 
  401000  0.094042627   0.12572605    182.51911    182.61306    108.69375  -0.65883982 
  402000  0.090546849   0.11706862     182.4861    182.57655    108.78075  -0.87680065 
  403000  0.080786092   0.10847005    182.54375    182.62446    108.41949  -0.91943635 
  404000  0.089297094   0.12122773    182.51893    182.60814    108.76016   -1.1726011 
  405000  0.097891729   0.13353491     182.5674     182.6652    108.47827   -1.0606917 
  406000  0.094068938   0.12557995    182.53288    182.62686    108.93938   -1.1837221 
  407000  0.099920314   0.13552296    182.56878     182.6686    108.58487  -0.96090875 
  408000  0.088248564   0.11981449    182.53037    182.61854    108.94592   -1.0031193 
  409000   0.10752507   0.15118856    182.56554    182.67296    108.79421  -0.79184637 
  410000   0.11204365   0.15696043    182.46385    182.57578    109.15628  -0.76400958 
  411000  0.088642953   0.11240272    182.54019    182.62875    108.58043  -0.97365571 
  412000  0.088070745   0.11256866    182.50794    182.59593    108.95128  -0.98550125 
  413000  0.090312585   0.11934367    182.55591    182.64613    108.52185   -1.1214492 
  414000  0.088649881    0.1154189    182.52495    182.61351    108.84473   -1.1076722 
  415000  0.083495734   0.10897806    182.58661    182.67002    108.46345   -1.3747239 
  416000  0.084216845   0.11035281     182.5982    182.68234    108.78239   -1.2525941 
  417000   0.10019712   0.13416708    182.61602    182.71612    108.61302   -1.1450333 
  418000   0.10592548   0.13789386    182.50425    182.61007    108.94284   -0.5016998 
  419000  0.091299024   0.12219164    182.48388    182.57509    108.58628  -0.96518429 
  420000  0.092113099   0.12043455    182.47007    182.56209    108.70359   -0.7663901 
  421000  0.085891863   0.11074466    182.49862    182.58443    108.64205   -1.1148193 
  422000  0.090981506   0.11715933    182.52223    182.61313    108.64714  -0.85378562 
  423000  0.091248717   0.11745802    182.48643    182.57759    108.95649  -0.76393206 
  424000  0.085024561   0.11252965    182.51502    182.59996    108.46321  -0.93824958 
  425000  0.095314702   0.12830017    182.49853    182.59375    108.71649  -0.98434822 
  426000  0.077759187   0.10117343    182.54679    182.62447    108.55568   -0.9270187 
  427000  0.080598582   0.10527047    182.54187    182.62239    108.80553   -1.1140453 
  428000  0.091224575   0.11879566    182.54653    182.63766    108.65462  -0.61023927 
  429000  0.089913345     0.112503    182.48787     182.5777    109.00583  -0.86814542 
  430000   0.11343998    0.1389684    182.49165    182.60498    108.64281  -0.59834326 
  431000  0.093121209    0.1169426    182.44865    182.54168    109.11968  -0.58838707 
  432000  0.091316331   0.11503199    182.48149    182.57272     108.9114  -0.51291564 
  433000  0.081588112   0.10579621    182.44464    182.52615    109.01419  -0.84875212 
  434000   0.08012682   0.10205241    182.52662    182.60667    108.63444   -1.0154388 
  435000  0.078322611   0.10123742    182.52547    182.60371    108.96478   -1.2126135 
  436000  0.096205073   0.11892544    182.60066    182.69677    108.58782   -1.1178936 
  437000   0.12002747   0.14784025    182.51365    182.63356    108.98053  -0.93584299 
  438000   0.11851262   0.14448399    182.50047    182.61887    108.62859  -0.69475817 
  439000  0.096648739   0.12443194    182.44911    182.54566     108.8713  -0.54638751 
  440000  0.090990557      0.11267    182.45342    182.54432    108.65382  -0.62145428 
  441000   0.08735756   0.11124136    182.42033     182.5076    108.95554  -0.67776804 
  442000  0.080389366    0.1014106     182.4601    182.54041    108.70439  -0.84451907 
  443000  0.077029692  0.099285702    182.47043    182.54738    108.83448  -0.93605979 
  444000  0.078055839  0.099912949     182.5242    182.60218    108.80373    -1.155017 
  445000  0.088892554   0.11140269    182.53461    182.62341    108.76715  -0.94286137 
  446000    0.0979226   0.12228172    182.52944    182.62726    108.69784   -1.0045986 
  447000    0.1050871   0.13119897    182.49813    182.60311    108.67383  -0.63515524 
  448000   0.10154262   0.12579799    182.45167    182.55312     108.7646  -0.82831244 
  449000  0.085453443   0.11259392    182.48482    182.57019    108.54794  -0.81527178 
  450000  0.087655639   0.11196752    182.49423     182.5818    108.61341   -1.0210152 
  451000  0.096072401   0.11875078    182.51113     182.6071    108.51792  -0.83357734 
  452000  0.097173646   0.12215814    182.48041    182.57748    108.81177  -0.84399865 
  453000  0.098675938   0.12249395    182.49343    182.59201    108.55768  -0.70431194 
  454000  0.091948107   0.11801879    182.44852    182.54038    109.01895  -0.77800658 
  455000  0.081443269   0.10461775    182.50297    182.58433    108.52441  -0.80456247 
  456000  0.077765989  0.099365034    182.49601     182.5737    108.83399   -1.0452475 
  457000   0.09198586   0.11545299     182.5433    182.63519    108.50685  -0.89771761 
  458000  0.094209526   0.11536126    182.48121    182.57533    109.03929  -0.86363193 
  459000   0.10282139   0.12885217    182.50921    182.61193    108.61653  -0.68998337 
  460000  0.091957994   0.11786404    182.45459    182.54646    109.14845  -0.75324828 
  461000  0.081415328   0.10496057    182.52403    182.60536     108.5601  -0.91971107 
  462000   0.08989361    0.1126054    182.48546    182.57527    109.02827  -0.90217707 
  463000  0.098714486   0.12317873    182.52219    182.62081    108.63095  -0.96931326 
  464000   0.10900736   0.13408895    182.43559    182.54449    109.18873  -0.67652617 
  465000  0.083859021   0.10884568    182.49004    182.57381     108.7042   -0.9759736 
  466000  0.080851892   0.10604749       182.47    182.55078    109.01168  -0.96733427 
  467000  0.079388063   0.10141515     182.5532    182.63251    108.60944   -1.3425211 
  468000  0.098754341   0.12996786     182.5283    182.62696    108.84225  -0.98785833 
  469000  0.097843757   0.12461113    182.49863    182.59637    108.78767  -0.79212167 
  470000  0.094145153   0.11852375    182.47486    182.56891    108.68548   -0.6957839 
  471000   0.09843786   0.12671765     182.4476    182.54594    108.74214  -0.76626303 
  472000  0.084460985   0.10617595     182.4402    182.52458    108.57665  -0.61662981 
  473000  0.086716818   0.11125198    182.44173    182.52836    108.65539  -0.84333453 
  474000  0.080454263   0.10340401    182.46689    182.54726     108.6632  -0.71417428 
  475000  0.082938869   0.10578692    182.47616    182.55901    108.72685  -0.99209513 
  476000  0.094440481   0.12162915    182.50893    182.60328    108.53347  -0.78845921 
  477000  0.087959835   0.11278854    182.49401    182.58189    108.88046  -0.98638408 
  478000  0.087666213   0.11424193    182.54567    182.63325    108.66946  -0.92220706 
  479000  0.092221769   0.12152203    182.50046    182.59259    109.08998   -1.0394979 
  480000  0.098395245   0.12840793    182.55402    182.65232    108.67736    -1.008973 
  481000  0.090125904   0.11961539     182.5279    182.61794    109.02591  -0.98275735 
  482000  0.088302646   0.11388902    182.57221    182.66043    108.60567  -0.84273622 
  483000  0.098801626   0.13459491     182.5196     182.6183     109.0238  -0.94347635 
  484000  0.092036451   0.12497447    182.53787    182.62982    108.49976  -0.88391814 
  485000  0.091418637   0.12245109    182.47321    182.56454    109.02001  -0.82437773 
  486000  0.088617393   0.11889121    182.53103    182.61956    108.49519  -0.92249726 
  487000  0.081083504   0.10777749    182.50702    182.58802    108.84092  -0.95247724 
  488000  0.081688286   0.10749092    182.57862    182.66022    108.36945   -1.1198857 
  489000  0.097652897   0.13290027    182.54022    182.63778    108.79967  -0.95988473 
  490000  0.085910193   0.11432095    182.59051    182.67634    108.41745   -1.2111027 
  491000  0.083130727   0.10823422    182.55212    182.63517    108.90809  -0.96401966 
  492000   0.09372183   0.11750601      182.595    182.68863      108.464   -1.1909996 
  493000   0.11163983   0.13503746    182.53696    182.64849    108.95449  -0.87150133 
  494000   0.11709198   0.14473743     182.4879    182.60488    108.71686  -0.82798851 
  495000   0.10132357   0.12465299    182.42808     182.5293    108.84734  -0.44097498 
  496000  0.088730055   0.11358425    182.43318    182.52182    108.78162   -0.6255182 
  497000  0.082715809   0.10620528    182.44398    182.52661    108.67404  -0.55463978 
  498000  0.078160045   0.10210128    182.46788    182.54596    108.84783  -0.95699142 
  499000  0.072560553  0.097246843    182.51881     182.5913    108.54521  -0.99772284 
  500000  0.088116622   0.11609862    182.53531    182.62334    108.75852   -1.2091445 
  501000  0.084297924   0.11067257    182.60074    182.68495    108.38598   -1.1195173 
  502000   0.10430862   0.13723117    182.57438    182.67859    108.68532   -1.0683047 
  503000   0.10177579   0.13332462    182.53699    182.63867    108.53926  -0.64446664 
  504000   0.09274889   0.12058781    182.47168    182.56434    109.15319  -0.64301108 
  505000  0.084703737   0.10712338    182.51685    182.60147    108.54962  -0.65615521 
  506000  0.088697184   0.10994517    182.46568    182.55429    108.97385  -0.68079651 
  507000  0.083466954   0.10647222    182.53054    182.61393    108.41221  -0.69775432 
  508000  0.087985232   0.10849975    182.47313    182.56103    109.10503  -0.62486484 
  509000  0.091012022   0.11323277    182.51526    182.60619    108.48655  -0.64565285 
  510000  0.079560797   0.10442406    182.48176    182.56124    108.78328  -0.82629422 
  511000  0.089900598   0.11362694     182.5267    182.61651    108.49836  -0.72620087 
  512000  0.086912714   0.11103167    182.45753    182.54436    108.98587  -0.86324041 
  513000  0.089802184   0.11353676    182.52763    182.61734    108.58034  -0.97393096 
  514000   0.08306848   0.11083264    182.51295    182.59594    108.88818   -1.0748782 
  515000  0.098825881    0.1326593    182.56089    182.65962     108.5212  -0.97956634 
  516000  0.098466426   0.13396358    182.48451    182.58288    108.89006  -0.73727306 
  517000  0.095822639   0.12952423    182.50733    182.60306    108.61103  -0.92300926 
  518000  0.083556401   0.10766669    182.50249    182.58597    108.80236   -0.9333367 
  519000  0.077668274  0.099502872    182.56842    182.64601     108.4685   -1.2734852 
  520000  0.098134723   0.13318836    182.54231    182.64035    108.85895  -0.92935583 
  521000   0.10257824   0.13895319    182.51324    182.61571    108.57646  -0.98535579 
  522000   0.10976103   0.14962881    182.45807    182.56773    108.66372  -0.54611604 
  523000  0.086809743   0.11167179    182.47587    182.56259    108.54474  -0.92484238 
  524000  0.084835878   0.10937426    182.50554     182.5903     108.5337  -0.72140779 
  525000  0.099924275   0.13675495     182.4813    182.58113    108.62428   -0.9472367 
  526000   0.11017341   0.15386448    182.47729    182.58735    108.49603  -0.69100028 
  527000  0.095615306    0.1304772    182.44695    182.54248    108.68158  -0.79529177 
  528000  0.083977857   0.11145776    182.46687    182.55077    108.65477  -0.56539814 
  529000   0.07737216   0.10027954    182.46461     182.5419    108.83187  -0.97240531 
  530000  0.075571712   0.09587455    182.54344    182.61894    108.37734  -0.99553614 
  531000  0.084528689   0.11244319    182.55098    182.63542     108.7408   -1.2377564 
  532000  0.096643019   0.13341521    182.58452    182.68107    108.43017  -0.90504196 
  533000  0.092987342   0.12488328    182.50942    182.60231    108.82507  -0.76656487 
  534000  0.093141193   0.12552115    182.53116    182.62421    108.36826  -0.67557485 
  535000  0.084066701   0.11551448    182.47435    182.55833    108.94938  -0.76321629 
  536000   0.09639403   0.13029031    182.49789    182.59419    108.44335  -0.70127231 
  537000  0.084442807   0.11315631    182.46254     182.5469    109.08672  -0.72156803 
  538000  0.082230639   0.10907654    182.53306    182.61521    108.49349  -0.88902907 
  539000  0.091019645   0.12456781    182.48395    182.57488    108.87521  -0.86186408 
  540000  0.081514112   0.10854435    182.54411    182.62554    108.39722   -1.0931823 
  541000  0.093603705   0.12694881    182.49729     182.5908    108.95231  -0.80757576 
  542000  0.097218187   0.13124943    182.53246    182.62958    108.57666   -1.0065728 
  543000   0.10655172   0.14662397    182.47702    182.58347     108.8924  -0.67083792 
  544000  0.099219478   0.13556142    182.48264    182.58177    108.62582  -0.85873139 
  545000  0.083520995   0.10748374     182.4752    182.55864    108.78316  -0.74610174 
  546000  0.085379322   0.10853235       182.53     182.6153    108.58622   -1.2025955 
  547000  0.086442364   0.11074524    182.54398    182.63034    108.72186   -1.0373735 
  548000  0.089223308   0.11194147    182.56841    182.65754    108.60027   -1.1910471 
  549000   0.10529791   0.13182618     182.5109    182.61609    108.78478  -0.75803949 
  550000   0.10355225   0.12943266    182.47663    182.58008    108.77626  -0.90304981 
  551000  0.093187874   0.11689787    182.50195    182.59504    108.65049  -0.69295503 
  552000  0.090288016   0.12078843    182.49878    182.58898    108.80221   -1.0397102 
  553000  0.089144864   0.11933178     182.5602    182.64926    108.50889   -1.0668732 
  554000   0.08005965   0.10139661    182.57983    182.65981    108.85039   -1.3773942 
  555000  0.090862617   0.11517665    182.66199    182.75277    108.45409   -1.2009239 
  556000   0.12008513   0.14893647    182.54121    182.66118    108.88921  -0.84231375 
  557000  0.098144508   0.12176775    182.53123    182.62928    108.67747  -0.54192802 
  558000  0.088879051   0.11491372    182.46428    182.55308    108.96871  -0.70472376 
  559000  0.088338441   0.11179539    182.51185     182.6001    108.58139  -0.71352074 
  560000  0.077975093   0.10128353    182.49427    182.57217    109.00888  -0.89706598 
  561000  0.078406241  0.098366377    182.57176    182.65009    108.44674  -0.95995295 
  562000   0.09082845   0.11755274    182.53573    182.62647    108.90256   -1.0429994 
  563000  0.096139271    0.1235385    182.56722    182.66327    108.59757  -0.86505608 
  564000   0.10292118   0.13151089    182.47298     182.5758    108.88601  -0.73725118 
  565000  0.091740664   0.11882745    182.49907    182.59072    108.51668  -0.75707917 
  566000  0.091694816   0.11876294    182.43494    182.52654    108.89695  -0.67479213 
  567000   0.09177636   0.11576661    182.46709    182.55878    108.60549  -0.82232365 
  568000  0.089021759   0.11649416     182.4443    182.53323    108.86295  -0.81520125 
  569000  0.080267376   0.10417602     182.5117    182.59189    108.56756    -1.098271 
  570000  0.087695896   0.11462726    182.49163    182.57924    108.72908  -0.87981097 
  571000  0.095032859   0.13168436    182.51567    182.61061    108.61541   -1.1628885 
  572000  0.097036054   0.13163556    182.50722    182.60416    108.73221  -0.85720847 
  573000  0.092099893   0.12575601    182.50952    182.60153    108.82237   -0.9516341 
  574000  0.096873636   0.13364756    182.48954    182.58632    108.82638  -0.74265441 
  575000  0.085440724    0.1116442    182.49663    182.58199    108.75781   -1.0181771 
  576000  0.085181714   0.10822956    182.54301    182.62811    108.65663   -1.0418438 
  577000  0.094833341   0.12134259    182.52082    182.61556    108.75164  -0.95225493 
  578000   0.10481466   0.12724394    182.51647    182.62118    108.56756  -0.65899713 
  579000   0.09646289   0.12622426    182.48339    182.57976    108.72288  -0.78151109 
  580000  0.091719846   0.11645443     182.5023    182.59393    108.50904  -0.64748409 
  581000  0.091034225   0.11352853    182.48441    182.57535    108.73795  -0.85708898 
  582000  0.081879342   0.10260909    182.54031     182.6221    108.42038  -0.80559482 
  583000  0.089217383   0.11521291    182.51888    182.60801     108.7223   -1.0355056 
  584000  0.094179531   0.11961998    182.57102    182.66511    108.46758  -0.80375794 
  585000  0.091052366   0.11454544    182.48467    182.57563    109.01793  -0.79346358 
  586000  0.085055218   0.11141213    182.54551    182.63049    108.45832  -0.94118694 
  587000  0.082825296   0.10806219    182.51828    182.60102    108.95306   -1.0147971 
  588000  0.095977692   0.12525015    182.55569    182.65157     108.5172  -0.81384514 
  589000  0.088665646     0.116917    182.48233    182.57091    108.98199  -0.82511863 
  590000   0.10424177   0.14603906    182.51823    182.62237    108.60791  -0.73160188 
  591000   0.10540499   0.14501932    182.46643    182.57173    108.98476   -0.7130284 
  592000  0.093524431   0.12397765    182.50983    182.60326    108.75631  -0.74459341 
  593000  0.084234816   0.11353974    182.46595    182.55011     108.9925   -0.6405108 
  594000  0.091812423   0.12496438     182.4857    182.57742    108.62286  -0.75262592 
  595000  0.092582745    0.1250519    182.45652    182.54901    108.87768  -0.61127835 
  596000  0.092944854   0.12367411    182.47964    182.57249    108.71755   -0.7763154 
  597000  0.087786733   0.11492215    182.47167    182.55937      108.832  -0.69609955 
  598000  0.088272365   0.11724804    182.47629    182.56447    108.72123    -1.033607 
  599000  0.086310518   0.11666346    182.49445    182.58067    108.68146  -0.95231617 
  600000  0.084675793   0.11745296    182.49001    182.57461    108.81989  -0.94680933 
  601000  0.091746111   0.12707872     182.4932    182.58486    108.71517     -0.71329 
  602000  0.097692987   0.13358521    182.45278    182.55038     108.9599  -0.70481636 
  603000  0.086034692    0.1142654    182.48696    182.57291    108.59714  -0.72309656 
  604000  0.084387375   0.10691673    182.48695    182.57125     108.7695   -1.0595748 
  605000  0.084509646   0.11294635    182.55682    182.64125    108.41935   -1.0843917 
  606000  0.091820892    0.1263265      182.508    182.59973    108.96433  -0.97873814 
  607000   0.10088879   0.13567981    182.50878    182.60957    108.70981  -0.65267956 
  608000  0.098942407   0.12708776    182.45768    182.55653    109.06062   -0.7763637 
  609000  0.090477795   0.11902549    182.47532    182.56571    108.71997   -0.4859962 
  610000  0.095493743   0.12566702    182.42608    182.52148     108.8485  -0.82029954 
  611000  0.082133833   0.10854284    182.51579    182.59785    108.57948  -0.93743364 
  612000  0.081947091   0.10408535    182.49547    182.57733    108.95117   -1.0789539 
  613000  0.087045793   0.11516694    182.58073    182.66769    108.50831   -1.0268252 
  614000   0.10144291    0.1408346    182.48556     182.5869    109.00261  -0.84943547 
  615000   0.12478638    0.1780622    182.50229    182.62696    108.66925  -0.77949475 
  616000   0.10832061   0.14953452    182.43534    182.54356    109.10687  -0.50306887 
  617000  0.084962297    0.1113756    182.45515    182.54003    108.74724  -0.57732982 
  618000  0.085063558   0.11203166    182.42959    182.51457    108.98121  -0.64666859 
  619000  0.083253155   0.11117843    182.47521    182.55838    108.62463   -0.9379243 
  620000  0.089839814   0.12282669    182.45189    182.54164    108.95707  -0.77312387 
  621000   0.08475352   0.11312078    182.49597    182.58064    108.65392  -0.99464977 
  622000  0.081130734   0.10616204    182.49614    182.57719    108.73537  -0.84598056 
  623000   0.08513688   0.11395034    182.52373    182.60879    108.65709   -1.0618095 
  624000  0.088560828   0.12160456    182.52216    182.61063    108.61696  -0.98549641 
  625000  0.091784917   0.12254047     182.5322    182.62389    108.77087   -1.0773124 
  626000  0.085007829   0.11264304    182.55175    182.63667    108.61312   -1.0460626 
  627000   0.08710267   0.11455905    182.57237    182.65939    108.61944   -1.2178149 
  628000   0.11067899    0.1540626    182.54995    182.66052    108.66812  -0.77704821 
  629000  0.099043867   0.13443139    182.50914    182.60808    108.72545   -1.0204928 
  630000   0.10239589   0.13902652    182.51036    182.61266    108.78728  -0.60820481 
  631000  0.086674889   0.11765171    182.46934    182.55593    108.90275   -0.9313907 
  632000  0.087929868   0.11729099    182.52624    182.61409    108.66857  -0.79276728 
  633000  0.088799245   0.12003703    182.47571    182.56443    108.95967  -0.90243258 
  634000   0.08636385   0.11437501    182.52578    182.61206    108.51949  -0.95887888 
  635000  0.085576401   0.11193579    182.51351    182.59901    108.95943    -1.139934 
  636000  0.090885756   0.11895814    182.60427    182.69507    108.43396   -1.2360001 
  637000   0.10488962   0.14195743    182.54937    182.65416    109.08348   -1.0316938 
  638000   0.10916185   0.14536112    182.52935     182.6384    108.85134  -0.65130425 
  639000  0.088380165   0.11501768    182.48183    182.57012    109.00175   -0.9983611 
  640000  0.096191581   0.12732881    182.54949    182.64559    108.60754  -0.92430306 
  641000  0.093510214   0.12700782    182.49225    182.58567    109.00449  -0.95337316 
  642000  0.097141078   0.12938018    182.50298    182.60003    108.77918  -0.68432601 
  643000  0.094387059   0.12608759    182.42981    182.52411    109.07143  -0.74000383 
  644000  0.086807338   0.11560069    182.47602    182.56274    108.64329   -0.9401245 
  645000   0.08570182   0.11229664    182.46576    182.55138    108.98748  -0.95221033 
  646000  0.083259437   0.11094675    182.51307    182.59625    108.60122   -1.1267867 
  647000  0.098395394   0.13686066    182.49051    182.58881    108.82584  -0.86732186 
  648000   0.10928616   0.14997833    182.48316    182.59234    108.74109  -0.95675746 
  649000   0.08411646   0.11072925    182.47816    182.56219    108.86821  -0.74031547 
  650000  0.087669187   0.11709429    182.48168    182.56926    108.74165   -0.9483244 
  651000   0.11051063   0.15427981    182.45285    182.56325    108.79809  -0.66761204 
  652000   0.10810394   0.14817933    182.42936    182.53736    108.88637  -0.79201346 
  653000  0.085613155   0.11204455    182.47612    182.56165    108.74942  -0.68986364 
  654000  0.084305382    0.1078828    182.46284    182.54706     108.8698  -0.99360651 
  655000  0.086345712   0.11585088    182.52196    182.60823    108.61378  -0.96986082 
  656000  0.090854646   0.11991186    182.49932    182.59008    108.92771     -1.01347 
  657000  0.087517504   0.11093051    182.52914    182.61657    108.58539  -0.84436226 
  658000  0.094516983   0.12352593    182.49231    182.58674    109.04423  -0.84860043 
  659000  0.085015695   0.11009176    182.52212    182.60705    108.57922   -0.7905171 
  660000  0.087204607   0.11504865    182.46738     182.5545    109.01629  -0.76852212 
  661000  0.086195036    0.1117642    182.52579     182.6119    108.60002  -0.88842384 
  662000  0.088028186   0.11538929    182.50274    182.59068    108.93204   -1.0467504 
  663000  0.086183605   0.11402014    182.57985    182.66595    108.51414   -1.0373084 
  664000   0.10379069   0.14580108    182.48926    182.59295    109.08584  -0.80845036 
  665000  0.094134767   0.12877813    182.54457    182.63861    108.68283   -1.0020373 
  666000   0.10049068   0.13178761    182.47855    182.57894    109.27658  -0.79451935 
  667000  0.079231358   0.10389181    182.54127    182.62043    108.63967   -1.0556812 
  668000  0.087616287   0.11157288    182.52144    182.60897    108.86553   -1.0169499 
  669000  0.081320403    0.1017262    182.57528    182.65652    108.57552   -1.1234271 
  670000  0.085856771   0.11486764    182.53726    182.62303    108.88424  -0.99262604 
  671000  0.097300069   0.13110297    182.53465    182.63185    108.84456  -0.75797294 
  672000  0.086318719   0.11264673    182.49137     182.5776    108.89267  -0.73990287 
  673000  0.079940758   0.10456823    182.53903     182.6189    108.70743   -1.0511469 
  674000    0.0923031   0.12339677    182.50303    182.59524    108.92731  -0.58215814 
  675000  0.098015327   0.13584992    182.47697    182.57489    108.79026  -0.69801937 
  676000  0.093828884   0.13044749     182.4542    182.54794    108.80791  -0.51354006 
  677000  0.086375707   0.11715012    182.45099    182.53728    108.81066  -0.71145157 
  678000  0.087579555   0.11477342    182.46849    182.55599    108.76515  -0.61531602 
  679000  0.081192635   0.10772899     182.4645    182.54561    108.87341  -0.82702251 
  680000  0.077192459   0.10029539    182.53015    182.60727    108.58137  -0.90938545 
  681000  0.082418515   0.10740466    182.52456     182.6069    108.83313   -1.1419539 
  682000    0.0906692   0.11468818     182.5665    182.65708    108.67585  -0.94348909 
  683000  0.083733637    0.1086636    182.56544    182.64909    108.86548   -1.2048269 
  684000   0.10875435   0.13518835    182.55861    182.66726    108.60505   -0.7234214 
  685000   0.10730827    0.1300158    182.48525    182.59245    109.03757  -0.67305115 
  686000   0.10073038   0.12724462    182.49197     182.5926    108.69496  -0.48728296 
  687000  0.092091313   0.11336968    182.41418    182.50618    109.17917  -0.55183015 
  688000  0.088039175   0.11532933     182.4727    182.56065    108.75966  -0.64972079 
  689000  0.077725609   0.10293804    182.45948    182.53713    108.95683   -1.0682282 
  690000  0.081305199   0.10377907    182.55967     182.6409    108.54714   -1.0620395 
  691000  0.080826972    0.1074406    182.51433    182.59508     109.0477   -1.0394899 
  692000  0.090922979   0.12010846    182.56867     182.6595    108.57978   -1.1158144 
  693000   0.10388565   0.14045492    182.50251     182.6063     109.2087  -0.73848852 
  694000   0.10006439   0.13884685     182.5129    182.61287    108.64328  -0.78919453 
  695000  0.091523036   0.12313341    182.44213    182.53357    109.19657  -0.43705453 
  696000  0.082432254   0.10864256     182.4691    182.55145    108.74683  -0.71311642 
  697000  0.078732528   0.10248174     182.4451    182.52376    108.90779  -0.67464154 
  698000  0.077806429   0.10300513    182.49226       182.57    108.75597  -0.96941063 
  699000  0.083876964   0.10996694    182.49112    182.57492      108.846  -0.89687167 
  700000  0.078596191   0.10151242    182.55168     182.6302    108.79045   -1.2760726 
  701000  0.094884076   0.11958031    182.55924    182.65403    108.74458  -0.94239466 
  702000   0.10858352   0.13564724    182.49877    182.60725    108.92747  -0.60354971 
  703000  0.092113188   0.11292743    182.49491    182.58693    108.93615  -0.46513077 
  704000  0.086664422   0.11076076    182.47496    182.56154    108.90364  -0.62622909 
  705000  0.088875182    0.1114122    182.50158    182.59037    108.73771  -0.58095081 
  706000  0.087398449   0.11149972    182.46231    182.54963    109.01024  -0.85235539 
  707000   0.08210438   0.10600164    182.51226    182.59428    108.71612  -0.75848865 
  708000  0.085553658   0.10607456    182.48762    182.57309    108.96138  -0.97908869 
  709000  0.091163758   0.11653072    182.55003    182.64111    108.58518  -0.94510412 
  710000  0.096777411   0.12003915     182.4992    182.59589    109.05563   -1.0517719 
  711000   0.11167942   0.13748379    182.52404    182.63561    108.65225  -0.79083557 
  712000   0.11287489   0.13957793    182.44076    182.55353    109.16138  -0.68097256 
  713000  0.097513801   0.12136302    182.47623    182.57365    108.66352  -0.49835451 
  714000  0.093541997   0.12060979    182.42294    182.51639    109.17799  -0.53507361 
  715000  0.082548898   0.10340954     182.4921    182.57457    108.51998  -0.84011123 
  716000  0.078454103   0.10161755    182.48377    182.56214    108.93703  -0.91985304 
  717000  0.088760066   0.11341597    182.54089    182.62956    108.53783   -1.0782244 
  718000  0.087730623   0.10792519    182.50241    182.59005     108.9945   -1.0720282 
  719000  0.099660327   0.12574961    182.56145    182.66101    108.59283   -1.1577036 
  720000   0.10399315   0.12660014    182.49282    182.59671    109.12986  -0.77693797 
  721000  0.097068379   0.12202926       182.51    182.60698    108.85269  -0.85900245 
  722000   0.09873483   0.12214441    182.44241    182.54105    108.92078  -0.64234062 
  723000   0.08137171   0.10531335    182.48757    182.56886    108.72043  -0.83826452 
  724000  0.090058532   0.11449112    182.46276    182.55273    108.86488  -0.75607545 
  725000  0.099381089   0.12515592    182.47008    182.56937    108.78476  -0.96624485 
  726000  0.091823825   0.11330234    182.45941    182.55115    108.84011  -0.79565737 
  727000  0.086572304    0.1125431    182.47321     182.5597     108.7462   -1.0151886 
  728000  0.086349864   0.11104036    182.49888    182.58515    108.54298   -1.0257825 
  729000   0.08616462   0.10716819    182.50978    182.59586    108.72416   -1.1428848 
  730000  0.094539288   0.11880791    182.50986    182.60431    108.75504   -0.7465961 
  731000  0.089196528   0.11093101    182.49058    182.57969     108.9856  -0.93110923 
  732000  0.094030516   0.11715933    182.48279    182.57673    108.76396  -0.64570818 
  733000  0.078677925   0.10216026    182.47271    182.55131    108.99161   -1.0220475 
  734000  0.087000411   0.11418723    182.55762    182.64454    108.68495    -1.014974 
  735000  0.082343912   0.10922471    182.54517    182.62743    109.01094    -1.140677 
  736000  0.092565778   0.12232383    182.57759    182.67006    108.71109  -0.92980329 
  737000  0.085777761   0.11440477     182.5321    182.61779    109.08523  -0.98842352 
  738000   0.11380411   0.15942659    182.52582    182.63951    108.69752  -0.62527507 
  739000   0.10184949   0.14058372    182.44895     182.5507    109.08594  -0.62988734 
  740000  0.090046226   0.11342316    182.48107    182.57103    108.68085  -0.70492686 
  741000  0.084633892   0.10761712    182.44674    182.53129    109.00379  -0.89650201 
  742000  0.089647794   0.11312917    182.53395    182.62351    108.59308  -0.97067143 
  743000  0.097902159   0.12250437    182.48793    182.58574    109.02273  -0.84608933 
  744000   0.10186196    0.1250621    182.49944     182.6012    108.74659  -0.80779115 
  745000  0.091703484   0.11525798    182.45949     182.5511    109.08005  -0.75841097 
  746000  0.088086356   0.11549957    182.52016    182.60816    108.80076   -1.0138812 
  747000   0.08112906   0.10433876    182.52336    182.60441    108.88309    -1.134365 
  748000   0.10301488   0.12778658    182.55852    182.66144    108.67873   -1.3000067 
  749000  0.099522165   0.12452536    182.54016    182.63958    108.65924   -1.0243178 
  750000   0.11683891   0.14185257    182.49074    182.60746    108.74155  -0.86571196 
  751000  0.086909796   0.11497895    182.48895    182.57577    108.61913  -0.78009513 
  752000  0.094964902   0.11778984    182.46136    182.55624      108.816  -0.85218571 
  753000   0.10439379   0.12907743    182.45651    182.56081    108.76371  -0.66934555 
  754000  0.083563973   0.10841661    182.47099    182.55447     108.7891  -0.96967024 
  755000  0.079927791   0.10447872    182.52023    182.60008    108.63582  -0.88787208 
  756000  0.086654835   0.10801892    182.53424    182.62081    108.79081   -1.1557092 
  757000    0.1080946   0.13076066    182.54561     182.6536    108.52191  -0.93456588 
  758000  0.098015438     0.124535    182.50829    182.60621    108.86859  -0.89467565 
  759000   0.10100417   0.12366086    182.50369     182.6046    108.62564  -0.56966417 
  760000   0.10180845   0.13097519    182.44231    182.54402    109.01015  -0.66630024 
  761000  0.086944844   0.10900105    182.47698    182.56384    108.66922  -0.62980553 
  762000  0.082954812   0.10762963    182.46296    182.54584    108.94616  -0.91940644 
  763000  0.087403798   0.11217176    182.52869      182.616    108.53358   -0.9956367 
  764000  0.087977521   0.11142344    182.47723    182.56512    108.93792   -1.0394444 
  765000  0.095420569   0.12368366    182.53621    182.63153    108.57029   -1.0533323 
  766000  0.083661522   0.10963717    182.53023    182.61381    108.87704    -1.231932 
  767000  0.095568313   0.12545472    182.58656    182.68203    108.52751   -1.1513295 
  768000  0.092485291   0.11800136     182.5085    182.60089    108.93678     -1.13088 
  769000  0.091363848   0.12059251    182.57512     182.6664    108.57429   -1.1360109 
  770000   0.10250256    0.1299554    182.49364    182.59604    109.02513  -0.71887404 
  771000  0.093768906    0.1183001    182.51706    182.61074    108.54654  -0.78491762 
  772000  0.099674677   0.12310803     182.4462    182.54578    108.95358  -0.55481206 
  773000  0.097574046   0.12265018    182.44524    182.54272    108.79659  -0.60120096 
  774000  0.083090981   0.11037086    182.42527    182.50828    108.85285  -0.66900736 
  775000  0.081073296   0.10422595    182.47575    182.55675    108.61256    -1.132252 
  776000  0.085970671   0.11022453    182.49623    182.58212    108.76212    -1.065565 
  777000  0.081214568   0.10386296    182.52785    182.60899    108.68993   -1.3135172 
  778000  0.080053742   0.10338443    182.57049    182.65046    108.76052   -1.1483687 
  779000   0.08335397   0.10997655    182.59968    182.68295     108.7985   -1.4266855 
  780000   0.10429434   0.13761578    182.58638    182.69057    108.57111   -0.9743375 
  781000   0.11184099   0.15361897     182.4714    182.58314    108.89722  -0.71459426 
  782000   0.09517907   0.13053922    182.48106    182.57615    108.55774  -0.73445124 
  783000  0.094345329   0.12393003    182.43189    182.52614    108.93082  -0.64662267 
  784000  0.087304964   0.11560001    182.48089    182.56811    108.58688   -0.5354461 
  785000  0.089640846   0.11738291    182.44874    182.53829    109.01074  -0.80329923 
  786000   0.08068552   0.10409183    182.51062    182.59123    108.58896   -0.9243384 
  787000  0.086691836   0.11435517    182.47407    182.56068    108.91856   -0.8660686 
  788000  0.081879805   0.10670322    182.51575    182.59755    108.55499  -0.92963511 
  789000  0.078916059   0.10463831    182.50295    182.58179    108.88937    -1.123745 
  790000   0.08956543   0.12044906    182.57596    182.66544    108.57522   -1.0257691 
  791000  0.095714293   0.12960803    182.52846    182.62408     108.9726    -1.118334 
  792000   0.11080806    0.1545347    182.56252    182.67322    108.61294  -0.92366821 
  793000   0.10799908   0.15122702    182.47963    182.58752     109.0701  -0.79903429 
  794000  0.092091355   0.12325804    182.50359    182.59559     108.8195  -0.65340665 
  795000  0.094983792   0.12578112    182.44037    182.53526    109.12709  -0.69128531 
  796000  0.086133553   0.11428028    182.50322    182.58927    108.70589  -0.97835727 
  797000  0.087432255   0.11693055    182.48997    182.57732    109.03419  -0.94564334 
  798000  0.090619524   0.12506278     182.5386    182.62913    108.69211   -1.0643651 
  799000   0.10273023   0.14303952    182.48695    182.58958    108.87935  -0.72362834 
  800000   0.11992729   0.16435145     182.4661    182.58591     108.8887  -0.55884267 
  801000  0.096961581   0.12834029    182.42294    182.51981    108.96395  -0.42891383 
  802000  0.085706365   0.11179086    182.42216    182.50779    108.92478   -0.7505397 
  803000  0.082278898   0.11167944    182.43644    182.51864    108.79359  -0.64140902 
  804000  0.089193384   0.12174942    182.45067    182.53977     109.0918  -0.86708924 
  805000  0.089763186   0.12099719    182.46902     182.5587    108.90532  -0.63920135 
  806000  0.084326419     0.107575     182.4873    182.57154    108.90429   -1.1535748 
  807000  0.081934073   0.10651721    182.55897    182.64082    108.68967   -1.0248476 
  808000  0.097954427   0.13677181     182.5352    182.63306    108.86951   -1.1945951 
  809000      0.10939   0.15269027    182.55257    182.66186    108.62517  -0.84411801 
  810000    0.1058339   0.14417497    182.46483    182.57056    109.14546  -0.67516261 
  811000  0.084753417   0.11389764    182.49675    182.58142    108.62412  -0.63659619 
  812000  0.085033334   0.11016465    182.47518    182.56013    108.99534  -0.91212067 
  813000  0.090383933   0.12212498    182.54219    182.63248    108.64117  -0.88109559 
  814000  0.099873282   0.13928203    182.47021    182.56999    109.10029  -0.79376527 
  815000  0.094365202   0.12710078    182.53755    182.63183    108.62863  -0.79014175 
  816000  0.089594956   0.11740644    182.48829     182.5778    109.06521  -0.90774428 
  817000  0.087168252   0.11579149    182.55808    182.64516    108.63684   -1.0160829 
  818000  0.098795288   0.13612285    182.48682    182.58551    108.97573  -0.92060921 
  819000   0.10326921     0.144122    182.52004    182.62321    108.62364  -0.87188648 
  820000  0.097307002   0.13412855    182.44144    182.53866     109.2061  -0.61002289 
  821000  0.080247262   0.10548666    182.50861    182.58878    108.66809  -0.96509388 
  822000  0.081321735    0.1046736     182.4838    182.56504    108.90311  -0.91273112 
  823000  0.090596418   0.12430316    182.54797    182.63848    108.64429   -1.1845441 
  824000   0.11367683   0.15869594    182.49401    182.60758    108.88677   -0.9319309 
  825000  0.083842173   0.11149214    182.54375    182.62751    108.70748   -1.1271592 
  826000  0.090118681   0.11832451    182.53344    182.62347    108.83329  -0.80820556 
  827000  0.090118923   0.12266937    182.52809    182.61812    108.80339   -1.0035185 
  828000   0.10638855   0.14969488    182.48443    182.59072    108.81998  -0.62508656 
  829000   0.10132429   0.13783868    182.46881    182.57003    108.95123  -0.76438658 
  830000   0.09014026   0.11866453    182.49144    182.58149    108.77046  -0.69995668 
  831000  0.093245258   0.12094383    182.49581    182.58896      108.758   -1.0691135 
  832000  0.083637882   0.11296109    182.55433    182.63788    108.63177  -0.93388884 
  833000   0.10267637   0.14011369    182.49716    182.59973    108.73419  -0.96040829 
  834000  0.092421592   0.12825857    182.51004    182.60237    108.52866  -0.67566017 
  835000  0.098258739      0.13121    182.46651    182.56467    108.91599  -0.80538756 
  836000  0.083592755   0.10824468    182.51235    182.59586    108.59971  -0.84859885 
  837000  0.079489768   0.10283984    182.51413    182.59354    108.83877   -1.1972565 
  838000  0.089648716   0.11575499    182.59448    182.68404    108.50328   -1.1968182 
  839000  0.095537128   0.12629729    182.54342    182.63887    109.05755   -1.0553732 
  840000  0.099550254   0.13146294    182.58479    182.68424    108.46475   -1.0925229 
  841000  0.095671626   0.13078826    182.54598    182.64156    109.10021  -0.99871872 
  842000  0.084565661   0.11205006    182.62748    182.71196    108.45024   -1.3001172 
  843000   0.11336591   0.14979706    182.54074      182.654    109.04422  -0.81130738 
  844000  0.099569952   0.12322236    182.57209    182.67157    108.68783   -1.0288674 
  845000   0.10426592   0.12676285    182.50745    182.61161    109.07599  -0.86786677 
  846000    0.1034182   0.12726029    182.51363    182.61694    108.77225  -0.84445661 
  847000  0.091827565   0.11855535    182.46039    182.55212    109.10875  -0.70031802 
  848000  0.082044864   0.10457013    182.51138    182.59335    108.69254   -1.0635309 
  849000  0.080037158   0.10278957    182.52178    182.60174    108.84452   -1.0732423 
  850000  0.088849288   0.11167835    182.57253    182.66129    108.46033   -1.2632431 
  851000   0.11571756   0.13911898    182.51185    182.62745    108.86269  -0.87805825 
  852000    0.1010233   0.12655319    182.50723    182.60816    108.66469  -0.88134614 
  853000   0.10466468   0.12810167    182.44765    182.55221    108.77944  -0.52855972 
  854000  0.092563252   0.11821567    182.44786    182.54033    108.85827  -0.73399979 
  855000  0.086042896   0.11113037    182.47869    182.56464     108.8439  -0.75438313 
  856000  0.084579052   0.10676517    182.49887    182.58337    108.78999   -1.1336471 
  857000  0.085792911    0.1118883    182.55013    182.63583    108.72582    -1.003964 
  858000  0.097750954   0.12709005    182.51897    182.61662    108.83641  -0.90407034 
  859000   0.11043562   0.13371929    182.49215    182.60248    108.70161  -0.53074419 
  860000  0.097187003   0.11954466     182.4503     182.5474    108.91125  -0.73030437 
  861000  0.083182413    0.1073853    182.50345    182.58655    108.60371  -0.68403621 
  862000  0.088369599   0.11372261    182.47022     182.5585    108.95571  -0.83989384 
  863000   0.08191196   0.10407655    182.52744    182.60927    108.43625  -0.86519723 
  864000  0.089033951   0.11240471    182.49341    182.58236    108.87703   -1.0094586 
  865000  0.089368643   0.11000075    182.56993    182.65921    108.46477   -0.9419176 
  866000    0.1081974   0.13338589    182.46872    182.57681    109.19202  -0.72521262 
  867000  0.092180422    0.1140936     182.5372    182.62929    108.51237  -0.86141622 
  868000  0.087865075   0.11443866    182.50118    182.58896    109.23981  -0.73384114 
[...]
 1698000   0.11527417  -0.66671355    327.18816    429.14126 
 1699000   0.12844817   -0.6201357    304.33019    428.96295 
 1700000   0.12162185  -0.68615715    336.73006    428.83138 
 1701000   0.10970861  -0.79347737    389.39722    428.77521 
 1702000   0.10546542  -0.90356611    443.42302    428.79604 
 1703000   0.10828023   -1.0262859    503.64748    428.90237 
 1704000   0.10728453  -0.96233748    472.26493    428.96387 
 1705000   0.11325316  -0.96533857    473.73771    429.02729 
 1706000   0.10782198  -0.98111127    481.47813    429.10148 
 1707000    0.1046311   -1.0017145    491.58914    429.18974 
 1708000   0.10311628  -0.96141988    471.81462    429.24986 
 1709000   0.11095918   -0.9651622    473.65116     429.3124 
 1710000   0.10774057  -0.99382132    487.71556    429.39454 
 1711000   0.10746255   -1.1136086     546.5009    429.55901 
 1712000   0.10835499   -1.2296173    603.43188    429.80287 
 1713000   0.11849773   -1.2692944    622.90334    430.07332 
 1714000   0.11579948   -1.1252753    552.22628    430.24417 
 1715000   0.13346663   -1.0419744    511.34657    430.35744 
 1716000   0.15395573   -0.9560776    469.19291     430.4116 
 1717000   0.15861435  -0.89169061    437.59514    430.42161 
 1718000   0.16888035  -0.63029221    309.31447    430.25317 
 1719000   0.17531988  -0.69437814     340.7645    430.12888 
 1720000   0.17581117  -0.60649567    297.63637    429.94512 
 1721000    0.1698177  -0.69079254    339.00487    429.81916 
 1722000   0.16532583  -0.74133261     363.8073    429.72786 
 1723000   0.14620393  -0.60877305    298.75399    429.54695 
 1724000   0.13757542  -0.63037598    309.35558    429.38117 
 1725000   0.12986137  -0.60172357    295.29448    429.19648 
 1726000   0.11763518  -0.58912004    289.10932    429.00379 
 1727000   0.12031919  -0.57785498    283.58102    428.80403 
 1728000   0.11225277   -0.5852566    287.21335    428.60981 
 1729000   0.11090731  -0.65755401    322.69314    428.46472 
 1730000    0.1060471  -0.75061988      368.365     428.3825 
 1731000   0.10385573  -0.94120818    461.89578    428.42828 
 1732000   0.10745109   -1.0241522    502.60036    428.52947 
 1733000    0.1065043  -0.95732853     469.8068    428.58571 
 1734000   0.10839335  -0.93591326    459.29731    428.62749 
 1735000   0.11224467  -0.95178124    467.08448    428.67974 
 1736000   0.11853079  -0.95984902    471.04373    428.73723 
 1737000   0.11675287   -0.8406279    412.53623    428.71527 
 1738000   0.11839607  -0.85366167    418.93253    428.70204 
 1739000   0.12645367  -0.91952219    451.25343    428.73251 
 1740000   0.13001508  -0.96135127    471.78095    428.79061 
 1741000   0.11475452   -1.0652853    522.78633    428.91728 
 1742000   0.12504509  -0.98035225    481.10564    428.98752 
 1743000   0.12083192  -0.87407297    428.94933    428.98747 
 1744000   0.12497423  -0.82466009    404.70007    428.95487 
 1745000   0.11034567  -0.81868406    401.76735    428.91843 
 1746000   0.12892658  -0.71336741    350.08344    428.81289 
 1747000   0.12795817  -0.74176475    364.01936    428.72627 
 1748000   0.13042675   -0.8086845    396.86008    428.68373 
 1749000   0.12620675  -0.87810621    430.92863    428.68672 
 1750000   0.12443735  -0.93294229    457.83931    428.72554 
 1751000   0.12586122   -0.9399683    461.28731    428.76884 
 1752000   0.13488134  -0.86148633    422.77246    428.76087 
 1753000    0.1377172  -0.69006308    338.64689    428.64136 
 1754000   0.13905881  -0.67205068    329.80734    428.51045 
 1755000   0.13842008  -0.73661831    361.49376    428.42181 
 1756000   0.13400376  -0.60927648    299.00105    428.25084 
 1757000   0.13238036  -0.58782345    288.47302    428.06644 
 1758000   0.12488289  -0.63789212    313.04411    427.91489 
 1759000   0.12392648  -0.74297794    364.61474     427.8316 
 1760000   0.12941598  -0.79462555    389.96068    427.78184 
 1761000   0.12016842  -0.81450999    399.71893    427.74501 
 1762000   0.11812489  -0.70942564    348.14902    427.64069 
 1763000   0.12428071  -0.59722596    293.08728    427.46457 
 1764000   0.12073497  -0.58574833    287.45466    427.28155 
 1765000   0.13214577  -0.59976508    294.33335    427.10799 
 1766000   0.12428015  -0.57234185    280.87546    426.91734 
 1767000   0.12064736  -0.48747103     239.2253    426.67295 
 1768000   0.12945421  -0.55927822    274.46451    426.47502 
 1769000   0.12271873  -0.63983505     313.9976    426.32894 
 1770000   0.12269824    -0.698462    342.76864    426.22056 
 1771000   0.12549665  -0.68648846    336.89265    426.10485 
 1772000   0.12281006  -0.55306082    271.41334    425.90474 
 1773000   0.11842877  -0.58537313    287.27053    425.72562 
 1774000    0.1085763  -0.51849481    254.45015    425.50462 
 1775000   0.11120489  -0.52685585    258.55331    425.28948 
 1776000   0.11367075   -0.4792565    235.19404    425.04482 
 1777000   0.11098124  -0.53083739    260.50725    424.83334 
 1778000   0.10842399  -0.65156054    319.75185    424.69844 
 1779000   0.11733722  -0.69687649    341.99055    424.59241 
 1780000   0.11457194  -0.75841008    372.18802    424.52531 
 1781000   0.11030846   -0.7718828    378.79973    424.46684 
 1782000   0.10852626   -0.7733582    379.52378    424.40944 
 1783000   0.10800772  -0.74216961    364.21805    424.33266 
 1784000   0.10852565  -0.80849753    396.76833    424.29755 
 1785000   0.10568408  -0.80065792    392.92105    424.25763 
 1786000   0.10442024  -0.81700921    400.94541    424.22801 
 1787000   0.10299533  -0.93578429    459.23401    424.27243 
 1788000   0.10174361  -0.94678576    464.63296    424.32359 
 1789000   0.11224666   -1.0769259    528.49892    424.45545 
 1790000   0.11213786   -1.0722773    526.21766     424.5841 
 1791000   0.11139098   -1.0580205    519.22115    424.70359 
 1792000   0.11732577  -0.96487176    473.50862    424.76514 
 1793000   0.11541581  -0.96522975    473.68431    424.82675 
 1794000   0.11536915  -0.91321337    448.15739     424.8561 
 1795000   0.12470439  -0.93393053    458.32429    424.89814 
 1796000   0.11359611  -0.96032455    471.27709    424.95633 
 1797000   0.11307048  -0.99793197    489.73285    425.03751 
 1798000   0.10917897   -1.1504324    564.57208    425.21214 
 1799000   0.10227073   -1.2255636    601.44257    425.43243 
 1800000   0.11011422   -1.2309694    604.09543    425.65548 
 1801000   0.10174972   -1.2412597     609.1454    425.88427 
 1802000   0.10651267   -1.2492272    613.05542    426.11736 
 1803000   0.11335136   -1.2100722    593.84016    426.32597 
 1804000   0.10905988   -1.1774141    577.81328    426.51416 
 1805000    0.1075594   -1.1319754    555.51435    426.67421 
 1806000   0.12988519   -1.0636308    521.97438     426.7923 
 1807000   0.13785856   -1.1510229    564.86189    426.96318 
 1808000   0.13646776    -1.193223     585.5715    427.15923 
 1809000   0.12832965   -1.1541083      566.376     427.3311 
 1810000   0.14053787  -0.93083634    456.80582    427.36745 
 1811000    0.1466407  -0.85415536     419.1748    427.35736 
 1812000   0.13331292  -0.79044499    387.90908    427.30884 
 1813000   0.12617926   -0.7561072    371.05789    427.23973 
 1814000   0.12021064    -0.684374    335.85499     427.1276 
 1815000   0.12999621  -0.61775669    303.16269    426.97569 
 1816000   0.12674893  -0.63999303    314.07513     426.8375 
 1817000   0.12435939  -0.75111239     368.6067    426.76631 
 1818000   0.13592767  -0.76508871    375.46554    426.70367 
 1819000   0.12675876  -0.78162171    383.57908    426.65108 
 1820000   0.11760402  -0.71243728    349.62697    426.55726 
 1821000   0.11097646  -0.66688578    327.27268    426.43648 
 1822000   0.10570477  -0.72301209    354.81654    426.34946 
 1823000   0.11276328  -0.67626052    331.87331     426.2348 
 1824000   0.11466531  -0.58855528    288.83217    426.06825 
 1825000   0.11295019  -0.55141692     270.6066    425.88004 
 1826000   0.12335468  -0.61257572    300.62014    425.72858 
 1827000   0.11314758  -0.64654153    317.28879    425.59761 
 1828000   0.10640467  -0.70193692    344.47395    425.49976 
 1829000   0.11040757  -0.78470711    385.09323    425.45107 
 1830000   0.11020491  -0.72444008    355.51732    425.36692 
 1831000   0.11175344  -0.75698415    371.48825    425.30216 
 1832000   0.10971364   -0.8189519    401.89879    425.27406 
 1833000   0.10588065  -0.75369842    369.87579    425.20764 
 1834000   0.10450741  -0.64970511    318.84131    425.08025 
 1835000   0.11059343  -0.72602884      356.297    424.99798 
 1836000   0.11152412  -0.79451039    389.90417    424.95605 
 1837000   0.11331646  -0.96210435    472.15053    425.01237 
 1838000   0.10279591   -1.0168411    499.01245    425.10057 
 1839000   0.10699641   -1.0586163    519.51353    425.21296 
 1840000   0.11638407    -1.004832      493.119    425.29371 
 1841000   0.12602835  -0.99713067    489.33961    425.36977 
 1842000   0.12458603  -0.96044364    471.33553     425.4243 
 1843000   0.11779166  -0.82823259    406.45326    425.40182 
 1844000   0.11590569  -0.83893495    411.70542    425.38561 
 1845000   0.11143322  -0.93090827    456.84112    425.42279 
 1846000    0.1090717   -1.0753417    527.72148    425.54357 
 1847000   0.10639178   -1.1160184    547.68351     425.6876 
 1848000   0.11230867   -1.1415418    560.20907    425.84605 
 1849000   0.11351924   -1.0851122    532.51633    425.97155 
 1850000    0.1170056   -1.0897541    534.79434    426.09942 
 1851000   0.11434061  -0.97599819    478.96889    426.16148 
 1852000    0.1120314  -0.96428079    473.21861    426.21664 
 1853000   0.10989013  -0.87690504    430.33916    426.22147 
 1854000   0.11440102  -0.82294302    403.85742    426.19531 
 1855000   0.11699338  -0.97698036    479.45089    426.25753 
 1856000   0.11734587   -1.0907162    535.26649    426.38473 
 1857000   0.12635846   -1.0592507    519.82487    426.49363 
 1858000   0.12292253   -1.0635719    521.94547    426.60475 
 1859000    0.1246814  -0.98011442    480.98893    426.66799 
 1860000   0.12263421  -0.97023343    476.13985    426.72545 
 1861000     0.114997  -0.88654162    435.06829    426.73512 
 1862000   0.12472379  -0.91933048    451.15935    426.76343 
 1863000   0.12449856  -0.78620875    385.83016    426.71605 
 1864000   0.11959533  -0.83412813    409.34649    426.69597 
 1865000      0.12942  -0.90100341    442.16538    426.71383 
 1866000   0.12236972  -0.96076471     471.4931    426.76548 
 1867000   0.11572863   -1.0398728    510.31519    426.86174 
 1868000   0.11481587  -0.97207452    477.04336    426.91948 
 1869000   0.11162508  -0.93194804    457.35138    426.95446 
 1870000   0.12029429  -0.93154947    457.15579    426.98914 
 1871000   0.10939497  -0.87311771    428.48053    426.99085 
 1872000   0.11784898  -0.74392547    365.07974    426.91993 
 1873000    0.1193012   -0.6604875    324.13274    426.80232 
 1874000   0.11169145  -0.72611472    356.33915    426.72179 
 1875000   0.12074004  -0.89313214    438.30257    426.73501 
 1876000   0.11410113  -0.92722812    455.03509    426.76728 
 1877000   0.11525395  -0.91793859    450.47628    426.79429 
 1878000   0.12204899  -0.83006633    407.35316    426.77217 
 1879000   0.11510567  -0.83867382    411.57727     426.7549 
 1880000   0.10930657  -0.83249854    408.54677    426.73423 
 1881000   0.11849834  -0.78685435    386.14698    426.68822 
 1882000   0.11735384  -0.66732406    327.48777    426.57587 
 1883000    0.1093878  -0.68045537    333.93193    426.47107 
 1884000   0.11596583  -0.74037375    363.33674    426.39973 
 1885000   0.11253175  -0.82516352    404.94713    426.37552 
 1886000   0.10944335  -0.82445637    404.60009    426.35097 
 1887000   0.10975942  -0.89709542    440.24754    426.36662 
 1888000   0.12411083  -0.77418361    379.92885    426.31438 
 1889000   0.11195514   -0.7966848    390.97125    426.27467 
 1890000   0.10233472  -0.82860947    406.63821    426.25263 
 1891000   0.10473697  -0.76509032    375.46634     426.1957 
 1892000   0.10786762  -0.75335808    369.70877    426.13244 
 1893000   0.10286759  -0.84342844    413.91059    426.11877 
 1894000   0.10946327  -0.92657956    454.71682    426.15073 
 1895000   0.11272908   -1.0252302    503.12941    426.23664 
 1896000   0.11224771  -0.99748192    489.51198    426.30718 
 1897000   0.11557258   -1.0083373    494.83924     426.3835 
 1898000   0.10333343  -0.90545713    444.35103    426.40348 
 1899000   0.11309513  -0.92242183    452.67642    426.43268 
 1900000   0.10940093  -0.92654721    454.70094    426.46405 
 1901000   0.10941649  -0.85387983    419.03959    426.45582 
 1902000   0.11305804   -0.8373706    410.93772    426.43863 
 1903000   0.12108717  -0.83100348    407.81307    426.41803 
 1904000   0.14147574  -0.86412541    424.06758    426.41543 
 1905000   0.14214377  -0.87789191    430.82346     426.4203 
 1906000   0.14248986  -0.78955731    387.47345    426.37736 
 1907000   0.13315527  -0.76519843    375.51939    426.32135 
 1908000   0.13573548  -0.68563035    336.47154     426.2225 
 1909000      0.12492  -0.71892576    352.81118    426.14183 
 1910000   0.12117909  -0.70226644    344.63566    426.05236 
 1911000   0.13318668  -0.61641836    302.50591    425.91689 
 1912000   0.13218954  -0.59294472    290.98628    425.76911 
 1913000   0.11437283  -0.61087401    299.78503    425.63127 
 1914000   0.11252395  -0.66215449    324.95081    425.52123 
 1915000   0.12273399   -0.7304601    358.47163    425.44804 
 1916000   0.10813671  -0.73744387    361.89891    425.37873 
 1917000   0.11203997  -0.84113829    412.78671    425.36502 
 1918000   0.10381061  -0.89178692     437.6424    425.37838 
 1919000   0.10460253  -0.90160562    442.46091    425.39695 
 1920000   0.10813501  -0.89349653    438.48139    425.41115 
 1921000   0.11395606  -0.84206816    413.24304    425.39795 
 1922000    0.1095744  -0.87802292    430.88775     425.4039 
 1923000   0.11151699   -1.0457552    513.20199    425.49892 
 1924000   0.10574587   -1.1229817    551.10074    425.63471 
 1925000   0.11008664   -1.1912513    584.60385    425.80638 
 1926000   0.10662166   -1.2116671    594.62287    425.98849 
 1927000   0.10553085   -1.1407609    559.82584    426.13271 
 1928000   0.11893665   -1.0887674    534.31012    426.24916 
 1929000   0.12479611  -0.99720085    489.37405    426.31703 
 1930000   0.12639689  -0.85563767    419.90225    426.31014 
 1931000   0.12674679  -0.79845353    391.83926    426.27316 
 1932000   0.11822753   -0.7674204    376.60982    426.21993 
 1933000   0.11727613  -0.79196482    388.65493    426.17971 
 1934000     0.116635  -0.85163239    417.93666    426.17089 
 1935000   0.10614242  -0.85273429    418.47741    426.16267 
 1936000   0.10809779  -0.79183266    388.59008    426.12257 
 1937000   0.11202238  -0.76473988    375.29436    426.06839 
 1938000   0.10424529  -0.82513954    404.93535    426.04588 
 1939000   0.11332012   -0.7836613       384.58    426.00177 
 1940000   0.10613255  -0.76158278    373.74502    425.94623 
 1941000   0.10746354  -0.78555126     385.5075    425.90331 
 1942000   0.11442591  -0.89438786    438.91881    425.91711 
 1943000   0.11163763   -1.0009018    491.19028    425.98625 
 1944000   0.12826957  -0.96203792    472.11792    426.03507 
 1945000   0.12760214  -0.89968123    441.51652    426.05144 
 1946000   0.12034267  -0.78209094    383.80935    426.00683 
 1947000    0.1162777  -0.81045618    397.72953      425.977 
 1948000   0.11107782  -0.78301467    384.26267    425.93304 
 1949000   0.11770892  -0.71018128    348.51985    425.85156 
 1950000   0.10979498  -0.72577311    356.17151    425.77829 
 1951000   0.10839593  -0.82715237    405.92315    425.75743 
 1952000   0.10421024   -1.0032692    492.35208    425.82731 
 1953000   0.09546254   -1.0442284    512.45271    425.91811 
 1954000   0.10124365   -1.0652716    522.77964    426.01954 
 1955000    0.1058138  -0.96145837    471.83351    426.06746 
 1956000    0.1172019  -0.81852158     401.6876    426.04198 
 1957000   0.12163916  -0.78098557    383.26689    425.99733 
 1958000   0.11484431   -0.7043009    345.63407    425.91354 
 1959000   0.12010406  -0.62108815     304.7976    425.78737 
 1960000    0.1183375  -0.66843841    328.03463    425.68565 
 1961000   0.11123784  -0.84936189    416.82242    425.67644 
 1962000   0.11433474  -0.97612395    479.03061    425.73184 
 1963000   0.11043236   -1.1222005    550.71735     425.8615 
 1964000   0.10493279   -1.0867092    533.30006    425.97283 
 1965000  0.098970647   -1.1349527    556.97546    426.10845 
 1966000    0.1150817  -0.99622256    488.89396    426.17337 
 1967000   0.12775375  -0.86596511    424.97041    426.17213 
 1968000    0.1306479  -0.72474699    355.66794    426.09937 
 1969000    0.1239827  -0.67536694    331.43479    426.00178 
 1970000   0.11814775  -0.68037912    333.89451    425.90692 
 1971000   0.11812497  -0.85983459    421.96187    425.90286 
 1972000   0.10136518  -0.96462081    473.38547    425.95166 
 1973000   0.10489376   -1.0910277    535.41939    426.06405 
 1974000   0.10420916   -1.1316164    555.33819    426.19664 
 1975000   0.10863998   -1.0915655    535.68329    426.30882 
 1976000   0.10377558   -1.0468431    513.73589     426.3983 
 1977000   0.11093598  -0.88850399    436.03132    426.40815 
 1978000   0.11572149  -0.81241139    398.68904    426.37984 
 1979000   0.10290147  -0.70487949    345.91801    426.29774 
 1980000   0.11713967  -0.74693344    366.55589    426.23684 
 1981000   0.11189878  -0.72785213    357.19178    426.16653 
 1982000   0.12819012  -0.74864359    367.39514    426.10674 
 1983000   0.13376119  -0.68943305    338.33771    426.01754 
 1984000   0.12113379  -0.56536092    277.44959    425.86671 
 1985000    0.1230943  -0.60403041    296.42655    425.73544 
 1986000   0.11604071  -0.61835626    303.45693    425.61155 
 1987000   0.11307371  -0.62751182       307.95    425.49246 
 1988000   0.11390295   -0.6376941    312.94693    425.37866 
 1989000   0.11432277  -0.61281594    300.73803    425.25276 
 1990000   0.12130299  -0.67054363    329.06776     425.1557 
 1991000   0.11999507  -0.78897913    387.18971    425.11743 
 1992000   0.12256433  -0.74947923    367.80523    425.05971 
 1993000   0.11761195  -0.74503143    365.62248    424.99992 
 1994000   0.12187729  -0.75434335    370.19229    424.94483 
 1995000   0.11538451  -0.78425866    384.87316     424.9046 
 1996000   0.10840257  -0.81711401    400.99684    424.88062 
 1997000   0.10423713  -0.76608278    375.95338    424.83159 
 1998000    0.1010041  -0.78248961      384.005    424.79073 
 1999000   0.10951363  -0.80161521    393.39084    424.75933 
 2000000    0.1144739  -0.82139355    403.09702    424.73769 
Loop time of 1182.36 on 1 procs for 1000000 steps with 1020 atoms

Performance: 73074.388 tau/day, 845.768 timesteps/s
99.7% CPU use with 1 MPI tasks x no OpenMP threads

MPI task timing breakdown:
Section |  min time  |  avg time  |  max time  |%varavg| %total
---------------------------------------------------------------
Pair    | 1054.6     | 1054.6     | 1054.6     |   0.0 | 89.19
Neigh   | 0.042809   | 0.042809   | 0.042809   |   0.0 |  0.00
Comm    | 11.111     | 11.111     | 11.111     |   0.0 |  0.94
Output  | 14.219     | 14.219     | 14.219     |   0.0 |  1.20
Modify  | 93.116     | 93.116     | 93.116     |   0.0 |  7.88
Other   |            | 9.314      |            |       |  0.79

Nlocal:    1020 ave 1020 max 1020 min
Histogram: 1 0 0 0 0 0 0 0 0 0
Nghost:    1224 ave 1224 max 1224 min
Histogram: 1 0 0 0 0 0 0 0 0 0
Neighs:    0 ave 0 max 0 min
Histogram: 1 0 0 0 0 0 0 0 0 0

Total # of neighbors = 0
Ave neighs/atom = 0
Neighbor list builds = 9028
Dangerous builds = 0

write_data      wall.2d.$r.data
write_data      wall.2d.0.54.data
clear

next r
jump in.wall.2d

Please see the log.cite file for references relevant to this simulation

Total wall time: 0:39:22
